# vtk DataFile Version 3.0
TPZGeoMesh VTK Visualization
ASCII

DATASET UNSTRUCTURED_GRID
POINTS 720 float
0.508606 0.788526 0 
0.370785 0.824908 0 
0.291667 0.708333 0 
0.43162 0.692203 0 
0.439696 0.806717 0 
0.331226 0.766621 0 
0.361643 0.700268 0 
0.470113 0.740365 0 
0.789907 0.493965 0 
0.831427 0.630258 0 
0.710089 0.687662 0 
0.684025 0.581278 0 
0.810667 0.562111 0 
0.770758 0.65896 0 
0.697057 0.63447 0 
0.736966 0.537621 0 
0.708743 0.297009 0 
0.721192 0.40367 0 
0.62639 0.474573 0 
0.577782 0.351119 0 
0.714967 0.350339 0 
0.673791 0.439121 0 
0.602086 0.412846 0 
0.643262 0.324064 0 
0.732361 0.101257 0 
0.634134 0.152245 0 
0.534724 0.102664 0 
0.625 0 0 
0.683247 0.126751 0 
0.584429 0.127455 0 
0.579862 0.0513319 0 
0.678681 0.0506285 0 
0.899155 0.728913 0 
0.831427 0.630258 0 
0.907666 0.536735 0 
1 0.625 0 
0.865291 0.679585 0 
0.869546 0.583496 0 
0.953833 0.580867 0 
0.949578 0.676956 0 
0.268224 0.896023 0 
0.370785 0.824908 0 
0.463988 0.906086 0 
0.375 1 0 
0.319505 0.860466 0 
0.417386 0.865497 0 
0.419494 0.953043 0 
0.321612 0.948012 0 
0.38279 0.43549 0 
0.309722 0.309221 0 
0.38483 0.252019 0 
0.440728 0.328479 0 
0.346256 0.372356 0 
0.347276 0.28062 0 
0.412779 0.290249 0 
0.411759 0.381985 0 
0.913732 0.441307 0 
0.789907 0.493965 0 
0.721192 0.40367 0 
0.8426 0.360612 0 
0.851819 0.467636 0 
0.755549 0.448817 0 
0.781896 0.382141 0 
0.878166 0.40096 0 
0.684025 0.581278 0 
0.710089 0.687662 0 
0.615452 0.74696 0 
0.568851 0.652438 0 
0.697057 0.63447 0 
0.66277 0.717311 0 
0.592151 0.699699 0 
0.626438 0.616858 0 
0.43162 0.692203 0 
0.568851 0.652438 0 
0.615452 0.74696 0 
0.508606 0.788526 0 
0.500235 0.672321 0 
0.592151 0.699699 0 
0.562029 0.767743 0 
0.470113 0.740365 0 
0.440728 0.328479 0 
0.49609 0.213061 0 
0.612988 0.251899 0 
0.577782 0.351119 0 
0.468409 0.27077 0 
0.554539 0.23248 0 
0.595385 0.301509 0 
0.509255 0.339799 0 
0.0873276 0.55569 0 
0.205158 0.50295 0 
0.265616 0.597886 0 
0.157915 0.63982 0 
0.146243 0.52932 0 
0.235387 0.550418 0 
0.211765 0.618853 0 
0.122621 0.597755 0 
0.265616 0.597886 0 
0.291667 0.708333 0 
0.200011 0.743044 0 
0.157915 0.63982 0 
0.278641 0.65311 0 
0.245839 0.725689 0 
0.178963 0.691432 0 
0.211765 0.618853 0 
0.721192 0.40367 0 
0.708743 0.297009 0 
0.800192 0.258125 0 
0.8426 0.360612 0 
0.714967 0.350339 0 
0.754467 0.277567 0 
0.821396 0.309369 0 
0.781896 0.382141 0 
0.534724 0.102664 0 
0.634134 0.152245 0 
0.612988 0.251899 0 
0.49609 0.213061 0 
0.584429 0.127455 0 
0.623561 0.202072 0 
0.554539 0.23248 0 
0.515407 0.157862 0 
0.558922 0.913788 0 
0.508606 0.788526 0 
0.615452 0.74696 0 
0.639235 0.846329 0 
0.533764 0.851157 0 
0.562029 0.767743 0 
0.627343 0.796645 0 
0.599078 0.880058 0 
0.0943286 0.463365 0 
0.151902 0.365825 0 
0.260291 0.400861 0 
0.205158 0.50295 0 
0.123116 0.414595 0 
0.206097 0.383343 0 
0.232725 0.451906 0 
0.149743 0.483158 0 
0.831427 0.630258 0 
0.789907 0.493965 0 
0.913732 0.441307 0 
0.907666 0.536735 0 
0.810667 0.562111 0 
0.851819 0.467636 0 
0.910699 0.489021 0 
0.869546 0.583496 0 
0.370785 0.824908 0 
0.508606 0.788526 0 
0.558922 0.913788 0 
0.463988 0.906086 0 
0.439696 0.806717 0 
0.533764 0.851157 0 
0.511455 0.909937 0 
0.417386 0.865497 0 
0.360765 0.153671 0 
0.441327 0.0869659 0 
0.534724 0.102664 0 
0.49609 0.213061 0 
0.401046 0.120318 0 
0.488025 0.0948148 0 
0.515407 0.157862 0 
0.428428 0.183366 0 
0.38279 0.43549 0 
0.490277 0.506305 0 
0.474337 0.599248 0 
0.375476 0.579765 0 
0.436533 0.470898 0 
0.482307 0.552777 0 
0.424906 0.589506 0 
0.379133 0.507628 0 
0.43162 0.692203 0 
0.291667 0.708333 0 
0.265616 0.597886 0 
0.375476 0.579765 0 
0.361643 0.700268 0 
0.278641 0.65311 0 
0.320546 0.588826 0 
0.403548 0.635984 0 
0.151902 0.365825 0 
0.0943286 0.463365 0 
0 0.5 0 
0 0.375 0 
0.123116 0.414595 0 
0.0471643 0.481683 0 
0 0.4375 0 
0.0759512 0.370412 0 
0.639235 0.846329 0 
0.615452 0.74696 0 
0.710089 0.687662 0 
0.721957 0.788531 0 
0.627343 0.796645 0 
0.66277 0.717311 0 
0.716023 0.738097 0 
0.680596 0.81743 0 
0.684025 0.581278 0 
0.62639 0.474573 0 
0.721192 0.40367 0 
0.789907 0.493965 0 
0.655207 0.527925 0 
0.673791 0.439121 0 
0.755549 0.448817 0 
0.736966 0.537621 0 
0.493158 0.409962 0 
0.62639 0.474573 0 
0.573043 0.555912 0 
0.490277 0.506305 0 
0.559774 0.442267 0 
0.599716 0.515242 0 
0.53166 0.531109 0 
0.491717 0.458134 0 
0 0.125 0 
0 0 0 
0.125 0 0 
0.0971151 0.0971151 0 
0 0.0625 0 
0.0625 0 0 
0.111058 0.0485576 0 
0.0485576 0.111058 0 
1 0.125 0 
0.902885 0.0971151 0 
0.875 0 0 
1 0 0 
0.951442 0.111058 0 
0.888942 0.0485576 0 
0.9375 0 0 
1 0.0625 0 
1 0.875 0 
1 1 0 
0.875 1 0 
0.902885 0.902885 0 
1 0.9375 0 
0.9375 1 0 
0.888942 0.951442 0 
0.951442 0.888942 0 
0.125 1 0 
0 1 0 
0 0.875 0 
0.0971151 0.902885 0 
0.0625 1 0 
0 0.9375 0 
0.0485576 0.888942 0 
0.111058 0.951442 0 
0.490277 0.506305 0 
0.38279 0.43549 0 
0.440728 0.328479 0 
0.493158 0.409962 0 
0.436533 0.470898 0 
0.411759 0.381985 0 
0.466943 0.36922 0 
0.491717 0.458134 0 
0.360765 0.153671 0 
0.38483 0.252019 0 
0.309722 0.309221 0 
0.281391 0.210779 0 
0.372798 0.202845 0 
0.347276 0.28062 0 
0.295557 0.26 0 
0.321078 0.182225 0 
0.360765 0.153671 0 
0.49609 0.213061 0 
0.440728 0.328479 0 
0.38483 0.252019 0 
0.428428 0.183366 0 
0.468409 0.27077 0 
0.412779 0.290249 0 
0.372798 0.202845 0 
0.568851 0.652438 0 
0.573043 0.555912 0 
0.62639 0.474573 0 
0.684025 0.581278 0 
0.570947 0.604175 0 
0.599716 0.515242 0 
0.655207 0.527925 0 
0.626438 0.616858 0 
0.568851 0.652438 0 
0.43162 0.692203 0 
0.375476 0.579765 0 
0.474337 0.599248 0 
0.500235 0.672321 0 
0.403548 0.635984 0 
0.424906 0.589506 0 
0.521594 0.625843 0 
0.309722 0.309221 0 
0.38279 0.43549 0 
0.297866 0.503391 0 
0.260291 0.400861 0 
0.346256 0.372356 0 
0.340328 0.469441 0 
0.279079 0.452126 0 
0.285007 0.355041 0 
0.577782 0.351119 0 
0.612988 0.251899 0 
0.719709 0.201 0 
0.708743 0.297009 0 
0.595385 0.301509 0 
0.666348 0.226449 0 
0.714226 0.249005 0 
0.643262 0.324064 0 
0.151902 0.365825 0 
0.212099 0.287403 0 
0.309722 0.309221 0 
0.260291 0.400861 0 
0.182001 0.326614 0 
0.26091 0.298312 0 
0.285007 0.355041 0 
0.206097 0.383343 0 
0.8426 0.360612 0 
1 0.375 0 
1 0.5 0 
0.913732 0.441307 0 
0.9213 0.367806 0 
1 0.4375 0 
0.956866 0.470654 0 
0.878166 0.40096 0 
0.360765 0.153671 0 
0.375 0 0 
0.5 0 0 
0.441327 0.0869659 0 
0.367883 0.0768355 0 
0.4375 0 0 
0.470663 0.0434829 0 
0.401046 0.120318 0 
0.639235 0.846329 0 
0.625 1 0 
0.5 1 0 
0.558922 0.913788 0 
0.632117 0.923164 0 
0.5625 1 0 
0.529461 0.956894 0 
0.599078 0.880058 0 
0.157915 0.63982 0 
0 0.625 0 
0 0.5 0 
0.0873276 0.55569 0 
0.0789576 0.63241 0 
0 0.5625 0 
0.0436638 0.527845 0 
0.122621 0.597755 0 
0.62639 0.474573 0 
0.493158 0.409962 0 
0.440728 0.328479 0 
0.577782 0.351119 0 
0.559774 0.442267 0 
0.466943 0.36922 0 
0.509255 0.339799 0 
0.602086 0.412846 0 
0.625 0 0 
0.534724 0.102664 0 
0.441327 0.0869659 0 
0.5 0 0 
0.579862 0.0513319 0 
0.488025 0.0948148 0 
0.470663 0.0434829 0 
0.5625 0 0 
1 0.625 0 
0.907666 0.536735 0 
0.913732 0.441307 0 
1 0.5 0 
0.953833 0.580867 0 
0.910699 0.489021 0 
0.956866 0.470654 0 
1 0.5625 0 
0.205158 0.50295 0 
0.0873276 0.55569 0 
0 0.5 0 
0.0943286 0.463365 0 
0.146243 0.52932 0 
0.0436638 0.527845 0 
0.0471643 0.481683 0 
0.149743 0.483158 0 
0.375 1 0 
0.463988 0.906086 0 
0.558922 0.913788 0 
0.5 1 0 
0.419494 0.953043 0 
0.511455 0.909937 0 
0.529461 0.956894 0 
0.4375 1 0 
0.625 1 0 
0.639235 0.846329 0 
0.721957 0.788531 0 
0.734711 0.900627 0 
0.632117 0.923164 0 
0.680596 0.81743 0 
0.728334 0.844579 0 
0.679856 0.950314 0 
0.375 0 0 
0.360765 0.153671 0 
0.281391 0.210779 0 
0.265289 0.0993728 0 
0.367883 0.0768355 0 
0.321078 0.182225 0 
0.27334 0.155076 0 
0.320144 0.0496864 0 
1 0.375 0 
0.8426 0.360612 0 
0.800192 0.258125 0 
0.900006 0.265263 0 
0.9213 0.367806 0 
0.821396 0.309369 0 
0.850099 0.261694 0 
0.950003 0.320132 0 
0 0.625 0 
0.157915 0.63982 0 
0.200011 0.743044 0 
0.10008 0.734809 0 
0.0789576 0.63241 0 
0.178963 0.691432 0 
0.150045 0.738926 0 
0.0500401 0.679904 0 
0.490277 0.506305 0 
0.573043 0.555912 0 
0.568851 0.652438 0 
0.474337 0.599248 0 
0.53166 0.531109 0 
0.570947 0.604175 0 
0.521594 0.625843 0 
0.482307 0.552777 0 
0.260291 0.400861 0 
0.297866 0.503391 0 
0.265616 0.597886 0 
0.205158 0.50295 0 
0.279079 0.452126 0 
0.281741 0.550639 0 
0.235387 0.550418 0 
0.232725 0.451906 0 
0.38279 0.43549 0 
0.375476 0.579765 0 
0.265616 0.597886 0 
0.297866 0.503391 0 
0.379133 0.507628 0 
0.320546 0.588826 0 
0.281741 0.550639 0 
0.340328 0.469441 0 
0.212099 0.287403 0 
0.101216 0.267634 0 
0.0732799 0.181969 0 
0.168068 0.170096 0 
0.156657 0.277518 0 
0.087248 0.224801 0 
0.120674 0.176033 0 
0.190083 0.228749 0 
0.719709 0.201 0 
0.732361 0.101257 0 
0.81803 0.073288 0 
0.829904 0.168068 0 
0.726035 0.151129 0 
0.775196 0.0872725 0 
0.823967 0.120678 0 
0.774807 0.184534 0 
0.260156 0.800848 0 
0.268224 0.896023 0 
0.182087 0.926168 0 
0.170096 0.831932 0 
0.26419 0.848436 0 
0.225156 0.911096 0 
0.176092 0.87905 0 
0.215126 0.81639 0 
0.798912 0.733054 0 
0.899155 0.728913 0 
0.926794 0.81734 0 
0.831932 0.829904 0 
0.849034 0.730983 0 
0.912975 0.773127 0 
0.879363 0.823622 0 
0.815422 0.781479 0 
0.181094 0.0733168 0 
0.265289 0.0993728 0 
0.281391 0.210779 0 
0.168068 0.170096 0 
0.223192 0.0863448 0 
0.27334 0.155076 0 
0.22473 0.190438 0 
0.174581 0.121707 0 
0.0734583 0.818925 0 
0.10008 0.734809 0 
0.200011 0.743044 0 
0.170096 0.831932 0 
0.0867692 0.776867 0 
0.150045 0.738926 0 
0.185053 0.787488 0 
0.121777 0.825429 0 
0.926559 0.181089 0 
0.900006 0.265263 0 
0.800192 0.258125 0 
0.829904 0.168068 0 
0.913282 0.223176 0 
0.850099 0.261694 0 
0.815048 0.213097 0 
0.878231 0.174579 0 
0.818906 0.926683 0 
0.734711 0.900627 0 
0.721957 0.788531 0 
0.831932 0.829904 0 
0.776808 0.913655 0 
0.728334 0.844579 0 
0.776945 0.809218 0 
0.825419 0.878293 0 
0 0.625 0 
0.10008 0.734809 0 
0.0734583 0.818925 0 
0 0.75 0 
0.0500401 0.679904 0 
0.0867692 0.776867 0 
0.0367291 0.784463 0 
0 0.6875 0 
1 0.625 0 
1 0.75 0 
0.926794 0.81734 0 
0.899155 0.728913 0 
1 0.6875 0 
0.963397 0.78367 0 
0.912975 0.773127 0 
0.949578 0.676956 0 
0.375 0 0 
0.265289 0.0993728 0 
0.181094 0.0733168 0 
0.25 0 0 
0.320144 0.0496864 0 
0.223192 0.0863448 0 
0.215547 0.0366584 0 
0.3125 0 0 
0.625 1 0 
0.734711 0.900627 0 
0.818906 0.926683 0 
0.75 1 0 
0.679856 0.950314 0 
0.776808 0.913655 0 
0.784453 0.963342 0 
0.6875 1 0 
0.375 1 0 
0.25 1 0 
0.182087 0.926168 0 
0.268224 0.896023 0 
0.3125 1 0 
0.216044 0.963084 0 
0.225156 0.911096 0 
0.321612 0.948012 0 
1 0.375 0 
0.900006 0.265263 0 
0.926559 0.181089 0 
1 0.25 0 
0.950003 0.320132 0 
0.913282 0.223176 0 
0.963279 0.215545 0 
1 0.3125 0 
0.625 0 0 
0.75 0 0 
0.81803 0.073288 0 
0.732361 0.101257 0 
0.6875 0 0 
0.784015 0.036644 0 
0.775196 0.0872725 0 
0.678681 0.0506285 0 
0 0.375 0 
0 0.25 0 
0.0732799 0.181969 0 
0.101216 0.267634 0 
0 0.3125 0 
0.0366399 0.215985 0 
0.087248 0.224801 0 
0.0506081 0.321317 0 
0.612988 0.251899 0 
0.634134 0.152245 0 
0.732361 0.101257 0 
0.719709 0.201 0 
0.623561 0.202072 0 
0.683247 0.126751 0 
0.726035 0.151129 0 
0.666348 0.226449 0 
0 0.375 0 
0.101216 0.267634 0 
0.212099 0.287403 0 
0.151902 0.365825 0 
0.0506081 0.321317 0 
0.156657 0.277518 0 
0.182001 0.326614 0 
0.0759512 0.370412 0 
0.710089 0.687662 0 
0.831427 0.630258 0 
0.899155 0.728913 0 
0.798912 0.733054 0 
0.770758 0.65896 0 
0.865291 0.679585 0 
0.849034 0.730983 0 
0.7545 0.710358 0 
0.291667 0.708333 0 
0.370785 0.824908 0 
0.268224 0.896023 0 
0.260156 0.800848 0 
0.331226 0.766621 0 
0.319505 0.860466 0 
0.26419 0.848436 0 
0.275912 0.754591 0 
0.818906 0.926683 0 
0.831932 0.829904 0 
0.926794 0.81734 0 
0.902885 0.902885 0 
0.825419 0.878293 0 
0.879363 0.823622 0 
0.91484 0.860113 0 
0.860895 0.914784 0 
0.0734583 0.818925 0 
0.170096 0.831932 0 
0.182087 0.926168 0 
0.0971151 0.902885 0 
0.121777 0.825429 0 
0.176092 0.87905 0 
0.139601 0.914526 0 
0.0852867 0.860905 0 
0.926559 0.181089 0 
0.829904 0.168068 0 
0.81803 0.073288 0 
0.902885 0.0971151 0 
0.878231 0.174579 0 
0.823967 0.120678 0 
0.860457 0.0852016 0 
0.914722 0.139102 0 
0.181094 0.0733168 0 
0.168068 0.170096 0 
0.0732799 0.181969 0 
0.0971151 0.0971151 0 
0.174581 0.121707 0 
0.120674 0.176033 0 
0.0851975 0.139542 0 
0.139105 0.085216 0 
0.170096 0.831932 0 
0.200011 0.743044 0 
0.291667 0.708333 0 
0.260156 0.800848 0 
0.185053 0.787488 0 
0.245839 0.725689 0 
0.275912 0.754591 0 
0.215126 0.81639 0 
0.831932 0.829904 0 
0.721957 0.788531 0 
0.710089 0.687662 0 
0.798912 0.733054 0 
0.776945 0.809218 0 
0.716023 0.738097 0 
0.7545 0.710358 0 
0.815422 0.781479 0 
0.829904 0.168068 0 
0.800192 0.258125 0 
0.708743 0.297009 0 
0.719709 0.201 0 
0.815048 0.213097 0 
0.754467 0.277567 0 
0.714226 0.249005 0 
0.774807 0.184534 0 
0.168068 0.170096 0 
0.281391 0.210779 0 
0.309722 0.309221 0 
0.212099 0.287403 0 
0.22473 0.190438 0 
0.295557 0.26 0 
0.26091 0.298312 0 
0.190083 0.228749 0 
0.25 0 0 
0.181094 0.0733168 0 
0.0971151 0.0971151 0 
0.125 0 0 
0.215547 0.0366584 0 
0.139105 0.085216 0 
0.111058 0.0485576 0 
0.1875 0 0 
0 0.75 0 
0.0734583 0.818925 0 
0.0971151 0.902885 0 
0 0.875 0 
0.0367291 0.784463 0 
0.0852867 0.860905 0 
0.0485576 0.888942 0 
0 0.8125 0 
1 0.25 0 
0.926559 0.181089 0 
0.902885 0.0971151 0 
1 0.125 0 
0.963279 0.215545 0 
0.914722 0.139102 0 
0.951442 0.111058 0 
1 0.1875 0 
0.75 1 0 
0.818906 0.926683 0 
0.902885 0.902885 0 
0.875 1 0 
0.784453 0.963342 0 
0.860895 0.914784 0 
0.888942 0.951442 0 
0.8125 1 0 
0.75 0 0 
0.875 0 0 
0.902885 0.0971151 0 
0.81803 0.073288 0 
0.8125 0 0 
0.888942 0.0485576 0 
0.860457 0.0852016 0 
0.784015 0.036644 0 
0 0.25 0 
0 0.125 0 
0.0971151 0.0971151 0 
0.0732799 0.181969 0 
0 0.1875 0 
0.0485576 0.111058 0 
0.0851975 0.139542 0 
0.0366399 0.215985 0 
0.25 1 0 
0.125 1 0 
0.0971151 0.902885 0 
0.182087 0.926168 0 
0.1875 1 0 
0.111058 0.951442 0 
0.139601 0.914526 0 
0.216044 0.963084 0 
1 0.75 0 
1 0.875 0 
0.902885 0.902885 0 
0.926794 0.81734 0 
1 0.8125 0 
0.951442 0.888942 0 
0.91484 0.860113 0 
0.963397 0.78367 0 
CELLS 90 810
8 0 1 2 3 4 5 6 7
8 8 9 10 11 12 13 14 15
8 16 17 18 19 20 21 22 23
8 24 25 26 27 28 29 30 31
8 32 33 34 35 36 37 38 39
8 40 41 42 43 44 45 46 47
8 48 49 50 51 52 53 54 55
8 56 57 58 59 60 61 62 63
8 64 65 66 67 68 69 70 71
8 72 73 74 75 76 77 78 79
8 80 81 82 83 84 85 86 87
8 88 89 90 91 92 93 94 95
8 96 97 98 99 100 101 102 103
8 104 105 106 107 108 109 110 111
8 112 113 114 115 116 117 118 119
8 120 121 122 123 124 125 126 127
8 128 129 130 131 132 133 134 135
8 136 137 138 139 140 141 142 143
8 144 145 146 147 148 149 150 151
8 152 153 154 155 156 157 158 159
8 160 161 162 163 164 165 166 167
8 168 169 170 171 172 173 174 175
8 176 177 178 179 180 181 182 183
8 184 185 186 187 188 189 190 191
8 192 193 194 195 196 197 198 199
8 200 201 202 203 204 205 206 207
8 208 209 210 211 212 213 214 215
8 216 217 218 219 220 221 222 223
8 224 225 226 227 228 229 230 231
8 232 233 234 235 236 237 238 239
8 240 241 242 243 244 245 246 247
8 248 249 250 251 252 253 254 255
8 256 257 258 259 260 261 262 263
8 264 265 266 267 268 269 270 271
8 272 273 274 275 276 277 278 279
8 280 281 282 283 284 285 286 287
8 288 289 290 291 292 293 294 295
8 296 297 298 299 300 301 302 303
8 304 305 306 307 308 309 310 311
8 312 313 314 315 316 317 318 319
8 320 321 322 323 324 325 326 327
8 328 329 330 331 332 333 334 335
8 336 337 338 339 340 341 342 343
8 344 345 346 347 348 349 350 351
8 352 353 354 355 356 357 358 359
8 360 361 362 363 364 365 366 367
8 368 369 370 371 372 373 374 375
8 376 377 378 379 380 381 382 383
8 384 385 386 387 388 389 390 391
8 392 393 394 395 396 397 398 399
8 400 401 402 403 404 405 406 407
8 408 409 410 411 412 413 414 415
8 416 417 418 419 420 421 422 423
8 424 425 426 427 428 429 430 431
8 432 433 434 435 436 437 438 439
8 440 441 442 443 444 445 446 447
8 448 449 450 451 452 453 454 455
8 456 457 458 459 460 461 462 463
8 464 465 466 467 468 469 470 471
8 472 473 474 475 476 477 478 479
8 480 481 482 483 484 485 486 487
8 488 489 490 491 492 493 494 495
8 496 497 498 499 500 501 502 503
8 504 505 506 507 508 509 510 511
8 512 513 514 515 516 517 518 519
8 520 521 522 523 524 525 526 527
8 528 529 530 531 532 533 534 535
8 536 537 538 539 540 541 542 543
8 544 545 546 547 548 549 550 551
8 552 553 554 555 556 557 558 559
8 560 561 562 563 564 565 566 567
8 568 569 570 571 572 573 574 575
8 576 577 578 579 580 581 582 583
8 584 585 586 587 588 589 590 591
8 592 593 594 595 596 597 598 599
8 600 601 602 603 604 605 606 607
8 608 609 610 611 612 613 614 615
8 616 617 618 619 620 621 622 623
8 624 625 626 627 628 629 630 631
8 632 633 634 635 636 637 638 639
8 640 641 642 643 644 645 646 647
8 648 649 650 651 652 653 654 655
8 656 657 658 659 660 661 662 663
8 664 665 666 667 668 669 670 671
8 672 673 674 675 676 677 678 679
8 680 681 682 683 684 685 686 687
8 688 689 690 691 692 693 694 695
8 696 697 698 699 700 701 702 703
8 704 705 706 707 708 709 710 711
8 712 713 714 715 716 717 718 719

CELL_TYPES 90
23
23
23
23
23
23
23
23
23
23
23
23
23
23
23
23
23
23
23
23
23
23
23
23
23
23
23
23
23
23
23
23
23
23
23
23
23
23
23
23
23
23
23
23
23
23
23
23
23
23
23
23
23
23
23
23
23
23
23
23
23
23
23
23
23
23
23
23
23
23
23
23
23
23
23
23
23
23
23
23
23
23
23
23
23
23
23
23
23
23

CELL_DATA 90
FIELD FieldData 2
material 1 90 int
1
1
1
1
1
1
1
1
1
1
1
1
1
1
1
1
1
1
1
1
1
1
1
1
1
1
1
1
1
1
1
1
1
1
1
1
1
1
1
1
1
1
1
1
1
1
1
1
1
1
1
1
1
1
1
1
1
1
1
1
1
1
1
1
1
1
1
1
1
1
1
1
1
1
1
1
1
1
1
1
1
1
1
1
1
1
1
1
1
1
elindex 1 90 int
33
34
35
36
37
38
39
40
41
42
43
44
45
46
47
48
49
50
51
52
53
54
55
56
57
58
59
60
61
62
63
64
65
66
67
68
69
70
71
72
73
74
75
76
77
78
79
80
81
82
83
84
85
86
87
88
89
90
91
92
93
94
95
96
97
98
99
100
101
102
103
104
105
106
107
108
109
110
111
112
113
114
115
116
117
118
119
120
121
122
POINT_DATA 720
SCALARS Sol float
LOOKUP_TABLE default
0.0418033 
0.0336191 
0.0434087 
0.0522726 
0.0377112 
0.0385139 
0.0478407 
0.0470379 
0.0415659 
0.0325738 
0.0449559 
0.0527926 
0.0370699 
0.0387649 
0.0488743 
0.0471793 
0.0431876 
0.0484285 
0.0589603 
0.0553795 
0.045808 
0.0536944 
0.0571699 
0.0492836 
0.0181767 
0.0293591 
0.022775 
2.56385e-13 
0.0237679 
0.026067 
0.0113875 
0.00908836 
0.0181534 
0.0325738 
0.0203283 
2.55996e-13 
0.0253636 
0.0264511 
0.0101642 
0.00907668 
0.0185438 
0.0336191 
0.0206786 
2.57636e-13 
0.0260814 
0.0271488 
0.0103393 
0.00927188 
0.0585335 
0.0463586 
0.0444911 
0.0551791 
0.0524461 
0.0454249 
0.0498351 
0.0568563 
0.0191441 
0.0415659 
0.0484285 
0.0306393 
0.030355 
0.0449972 
0.0395339 
0.0248917 
0.0527926 
0.0449559 
0.0450303 
0.0562483 
0.0488743 
0.0449931 
0.0506393 
0.0545205 
0.0522726 
0.0562483 
0.0450303 
0.0418033 
0.0542605 
0.0506393 
0.0434168 
0.0470379 
0.0551791 
0.0418187 
0.0444786 
0.0553795 
0.0484989 
0.0431486 
0.0499291 
0.0552793 
0.0188713 
0.0406691 
0.047516 
0.0306829 
0.0297702 
0.0440926 
0.0390994 
0.0247771 
0.047516 
0.0434087 
0.0310027 
0.0306829 
0.0454624 
0.0372057 
0.0308428 
0.0390994 
0.0484285 
0.0431876 
0.0309715 
0.0306393 
0.045808 
0.0370796 
0.0308054 
0.0395339 
0.022775 
0.0293591 
0.0444786 
0.0418187 
0.026067 
0.0369189 
0.0431486 
0.0322968 
0.0192039 
0.0418033 
0.0450303 
0.0301078 
0.0305036 
0.0434168 
0.0375691 
0.0246559 
0.0204391 
0.0297614 
0.0462914 
0.0406691 
0.0251002 
0.0380264 
0.0434803 
0.0305541 
0.0325738 
0.0415659 
0.0191441 
0.0203283 
0.0370699 
0.030355 
0.0197362 
0.0264511 
0.0336191 
0.0418033 
0.0192039 
0.0206786 
0.0377112 
0.0305036 
0.0199413 
0.0271488 
0.0303612 
0.0189853 
0.022775 
0.0418187 
0.0246733 
0.0208801 
0.0322968 
0.03609 
0.0585335 
0.0622624 
0.0591158 
0.0572974 
0.060398 
0.0606891 
0.0582066 
0.0579155 
0.0522726 
0.0434087 
0.047516 
0.0572974 
0.0478407 
0.0454624 
0.0524067 
0.054785 
0.0297614 
0.0204391 
2.46993e-13 
2.57425e-13 
0.0251002 
0.0102195 
2.52209e-13 
0.0148807 
0.0301078 
0.0450303 
0.0449559 
0.033782 
0.0375691 
0.0449931 
0.039369 
0.0319449 
0.0527926 
0.0589603 
0.0484285 
0.0415659 
0.0558765 
0.0536944 
0.0449972 
0.0471793 
0.0598249 
0.0589603 
0.0597542 
0.0622624 
0.0593926 
0.0593572 
0.0610083 
0.0610437 
1.15045e-13 
-2.47578e-16 
1.15516e-13 
0.00844499 
5.73986e-14 
5.76343e-14 
0.00422249 
0.00422249 
1.16838e-13 
0.00846574 
1.15319e-13 
-3.49737e-15 
0.00423287 
0.00423287 
5.59107e-14 
5.66702e-14 
1.14504e-13 
-3.45273e-15 
1.16563e-13 
0.0084264 
5.55259e-14 
5.65553e-14 
0.0042132 
0.0042132 
1.14799e-13 
-3.34272e-15 
1.15987e-13 
0.00843324 
5.57284e-14 
5.6322e-14 
0.00421662 
0.00421662 
0.0622624 
0.0585335 
0.0551791 
0.0598249 
0.060398 
0.0568563 
0.057502 
0.0610437 
0.0303612 
0.0444911 
0.0463586 
0.0340112 
0.0374262 
0.0454249 
0.0401849 
0.0321862 
0.0303612 
0.0418187 
0.0551791 
0.0444911 
0.03609 
0.0484989 
0.0498351 
0.0374262 
0.0562483 
0.0597542 
0.0589603 
0.0527926 
0.0580013 
0.0593572 
0.0558765 
0.0545205 
0.0562483 
0.0522726 
0.0572974 
0.0591158 
0.0542605 
0.054785 
0.0582066 
0.057682 
0.0463586 
0.0585335 
0.0518136 
0.0462914 
0.0524461 
0.0551736 
0.0490525 
0.046325 
0.0553795 
0.0444786 
0.0325263 
0.0431876 
0.0499291 
0.0385025 
0.037857 
0.0492836 
0.0297614 
0.0345265 
0.0463586 
0.0462914 
0.0321439 
0.0404425 
0.046325 
0.0380264 
0.0306393 
2.67501e-13 
2.35855e-13 
0.0191441 
0.0153196 
2.51678e-13 
0.00957205 
0.0248917 
0.0303612 
2.63562e-13 
2.36669e-13 
0.0189853 
0.0151806 
2.50115e-13 
0.00949267 
0.0246733 
0.0301078 
2.68074e-13 
2.35338e-13 
0.0192039 
0.0150539 
2.51706e-13 
0.00960196 
0.0246559 
0.0306829 
2.58908e-13 
2.46993e-13 
0.0188713 
0.0153415 
2.5295e-13 
0.00943566 
0.0247771 
0.0589603 
0.0598249 
0.0551791 
0.0553795 
0.0593926 
0.057502 
0.0552793 
0.0571699 
2.56385e-13 
0.022775 
0.0189853 
2.36669e-13 
0.0113875 
0.0208801 
0.00949267 
2.46527e-13 
2.55996e-13 
0.0203283 
0.0191441 
2.35855e-13 
0.0101642 
0.0197362 
0.00957205 
2.45926e-13 
0.0406691 
0.0188713 
2.46993e-13 
0.0204391 
0.0297702 
0.00943566 
0.0102195 
0.0305541 
2.57636e-13 
0.0206786 
0.0192039 
2.35338e-13 
0.0103393 
0.0199413 
0.00960196 
2.46487e-13 
2.68074e-13 
0.0301078 
0.033782 
0.0173035 
0.0150539 
0.0319449 
0.0255428 
0.00865173 
2.63562e-13 
0.0303612 
0.0340112 
0.017395 
0.0151806 
0.0321862 
0.0257031 
0.00869749 
2.67501e-13 
0.0306393 
0.0309715 
0.0173362 
0.0153196 
0.0308054 
0.0241538 
0.00866811 
2.58908e-13 
0.0306829 
0.0310027 
0.0173338 
0.0153415 
0.0308428 
0.0241683 
0.00866688 
0.0622624 
0.0597542 
0.0562483 
0.0591158 
0.0610083 
0.0580013 
0.057682 
0.0606891 
0.0462914 
0.0518136 
0.047516 
0.0406691 
0.0490525 
0.0496648 
0.0440926 
0.0434803 
0.0585335 
0.0572974 
0.047516 
0.0518136 
0.0579155 
0.0524067 
0.0496648 
0.0551736 
0.0345265 
0.0176719 
0.0104148 
0.0199668 
0.0260992 
0.0140434 
0.0151908 
0.0272466 
0.0325263 
0.0181767 
0.0104934 
0.0200449 
0.0253515 
0.014335 
0.0152691 
0.0262856 
0.0305628 
0.0185438 
0.0104895 
0.0199717 
0.0245533 
0.0145166 
0.0152306 
0.0252672 
0.0312401 
0.0181534 
0.010435 
0.019924 
0.0246967 
0.0142942 
0.0151795 
0.0255821 
0.0104214 
0.017395 
0.0340112 
0.0199668 
0.0139082 
0.0257031 
0.026989 
0.0151941 
0.010386 
0.0173338 
0.0310027 
0.0199717 
0.0138599 
0.0241683 
0.0254872 
0.0151789 
0.0103975 
0.0173362 
0.0309715 
0.0200449 
0.0138669 
0.0241538 
0.0255082 
0.0152212 
0.0103914 
0.0173035 
0.033782 
0.019924 
0.0138475 
0.0255428 
0.026853 
0.0151577 
2.58908e-13 
0.0173338 
0.010386 
1.70099e-13 
0.00866688 
0.0138599 
0.00519302 
2.14504e-13 
2.55996e-13 
1.77463e-13 
0.010435 
0.0181534 
2.1673e-13 
0.00521749 
0.0142942 
0.00907668 
2.63562e-13 
0.017395 
0.0104214 
1.71178e-13 
0.00869749 
0.0139082 
0.00521069 
2.1737e-13 
2.68074e-13 
0.0173035 
0.0103914 
1.68673e-13 
0.00865173 
0.0138475 
0.00519572 
2.18373e-13 
2.57636e-13 
1.75879e-13 
0.0104895 
0.0185438 
2.16758e-13 
0.00524475 
0.0145166 
0.00927188 
2.67501e-13 
0.0173362 
0.0103975 
1.67994e-13 
0.00866811 
0.0138669 
0.00519876 
2.17748e-13 
2.56385e-13 
1.77599e-13 
0.0104934 
0.0181767 
2.16992e-13 
0.00524668 
0.014335 
0.00908836 
2.57425e-13 
1.72054e-13 
0.0104148 
0.0176719 
2.1474e-13 
0.00520742 
0.0140434 
0.00883593 
0.0444786 
0.0293591 
0.0181767 
0.0325263 
0.0369189 
0.0237679 
0.0253515 
0.0385025 
2.57425e-13 
0.0176719 
0.0345265 
0.0297614 
0.00883593 
0.0260992 
0.0321439 
0.0148807 
0.0449559 
0.0325738 
0.0181534 
0.0312401 
0.0387649 
0.0253636 
0.0246967 
0.038098 
0.0434087 
0.0336191 
0.0185438 
0.0305628 
0.0385139 
0.0260814 
0.0245533 
0.0369857 
0.0103914 
0.019924 
0.010435 
0.0084264 
0.0151577 
0.0151795 
0.00943069 
0.00940892 
0.010386 
0.0199717 
0.0104895 
0.00843324 
0.0151789 
0.0152306 
0.00946137 
0.00940964 
0.0103975 
0.0200449 
0.0104934 
0.00846574 
0.0152212 
0.0152691 
0.00947955 
0.00943163 
0.0104214 
0.0199668 
0.0104148 
0.00844499 
0.0151941 
0.0151908 
0.00942992 
0.00943318 
0.0199717 
0.0310027 
0.0434087 
0.0305628 
0.0254872 
0.0372057 
0.0369857 
0.0252672 
0.019924 
0.033782 
0.0449559 
0.0312401 
0.026853 
0.039369 
0.038098 
0.0255821 
0.0200449 
0.0309715 
0.0431876 
0.0325263 
0.0255082 
0.0370796 
0.037857 
0.0262856 
0.0199668 
0.0340112 
0.0463586 
0.0345265 
0.026989 
0.0401849 
0.0404425 
0.0272466 
1.71178e-13 
0.0104214 
0.00844499 
1.15516e-13 
0.00521069 
0.00943318 
0.00422249 
1.43347e-13 
1.70099e-13 
0.010386 
0.00843324 
1.15987e-13 
0.00519302 
0.00940964 
0.00421662 
1.43043e-13 
1.67994e-13 
0.0103975 
0.00846574 
1.16838e-13 
0.00519876 
0.00943163 
0.00423287 
1.42416e-13 
1.68673e-13 
0.0103914 
0.0084264 
1.16563e-13 
0.00519572 
0.00940892 
0.0042132 
1.42618e-13 
1.77599e-13 
1.15319e-13 
0.00846574 
0.0104934 
1.46459e-13 
0.00423287 
0.00947955 
0.00524668 
1.72054e-13 
1.15045e-13 
0.00844499 
0.0104148 
1.4355e-13 
0.00422249 
0.00942992 
0.00520742 
1.75879e-13 
1.14799e-13 
0.00843324 
0.0104895 
1.45339e-13 
0.00421662 
0.00946137 
0.00524475 
1.77463e-13 
1.14504e-13 
0.0084264 
0.010435 
1.45984e-13 
0.0042132 
0.00943069 
0.00521749 
SCALARS Force float
LOOKUP_TABLE default
0.833357 
0.755477 
0.826389 
0.916764 
0.804576 
0.800857 
0.8815 
0.882663 
0.831835 
0.746379 
0.841291 
0.919057 
0.799257 
0.802844 
0.886173 
0.884863 
0.830442 
0.883589 
0.966758 
0.943569 
0.862781 
0.932181 
0.963965 
0.897045 
0.574024 
0.72215 
0.681836 
0.46875 
0.654211 
0.708163 
0.584638 
0.532277 
0.576548 
0.746379 
0.664917 
0.46875 
0.668623 
0.712928 
0.574992 
0.533133 
0.578891 
0.755477 
0.667594 
0.46875 
0.674972 
0.719174 
0.576541 
0.534927 
0.964201 
0.854796 
0.850482 
0.934135 
0.92014 
0.857095 
0.896794 
0.956572 
0.650763 
0.831835 
0.883589 
0.726392 
0.750351 
0.86415 
0.813288 
0.694363 
0.919057 
0.841291 
0.851363 
0.944044 
0.886173 
0.852563 
0.903257 
0.940715 
0.916764 
0.944044 
0.851363 
0.833357 
0.940611 
0.903257 
0.848932 
0.882663 
0.934135 
0.835301 
0.851359 
0.943569 
0.892911 
0.850917 
0.903006 
0.9485 
0.6532 
0.826119 
0.870964 
0.726857 
0.747992 
0.854876 
0.805589 
0.696059 
0.870964 
0.826389 
0.701872 
0.726857 
0.855115 
0.768933 
0.720578 
0.805589 
0.883589 
0.830442 
0.702763 
0.726392 
0.862781 
0.77154 
0.720729 
0.813288 
0.681836 
0.72215 
0.851359 
0.835301 
0.708163 
0.791943 
0.850917 
0.765409 
0.650616 
0.833357 
0.851363 
0.72134 
0.751098 
0.848932 
0.791571 
0.691479 
0.668177 
0.72165 
0.865423 
0.826119 
0.701328 
0.800024 
0.852502 
0.754073 
0.746379 
0.831835 
0.650763 
0.664917 
0.799257 
0.750351 
0.662412 
0.712928 
0.755477 
0.833357 
0.650616 
0.667594 
0.804576 
0.751098 
0.663641 
0.719174 
0.72134 
0.651921 
0.681836 
0.835301 
0.6921 
0.671363 
0.765409 
0.789241 
0.964201 
0.999731 
0.978982 
0.956263 
0.99025 
0.993803 
0.972699 
0.970666 
0.916764 
0.826389 
0.870964 
0.956263 
0.8815 
0.855115 
0.919812 
0.944411 
0.72165 
0.668177 
0.5 
0.46875 
0.701328 
0.589209 
0.492188 
0.606779 
0.72134 
0.851363 
0.841291 
0.734969 
0.791571 
0.852563 
0.793288 
0.733246 
0.919057 
0.966758 
0.883589 
0.831835 
0.950262 
0.932181 
0.86415 
0.884863 
0.983693 
0.966758 
0.983077 
0.999731 
0.986188 
0.979649 
0.99606 
0.996357 
0.21875 
0 
0.21875 
0.350735 
0.117188 
0.117187 
0.289847 
0.289847 
0.21875 
0.350735 
0.21875 
0 
0.289847 
0.289847 
0.117188 
0.117187 
0.21875 
0 
0.21875 
0.350735 
0.117188 
0.117188 
0.289847 
0.289847 
0.21875 
0 
0.21875 
0.350735 
0.117188 
0.117188 
0.289847 
0.289847 
0.999731 
0.964201 
0.934135 
0.983693 
0.99025 
0.956572 
0.963608 
0.996357 
0.72134 
0.850482 
0.854796 
0.737123 
0.791037 
0.857095 
0.801206 
0.734012 
0.72134 
0.835301 
0.934135 
0.850482 
0.789241 
0.892911 
0.896794 
0.791037 
0.944044 
0.983077 
0.966758 
0.919057 
0.968228 
0.979649 
0.950262 
0.940715 
0.944044 
0.916764 
0.956263 
0.978982 
0.940611 
0.944411 
0.972699 
0.967394 
0.854796 
0.964201 
0.918261 
0.865423 
0.92014 
0.947142 
0.897804 
0.86553 
0.943569 
0.851359 
0.724654 
0.830442 
0.903006 
0.794997 
0.782217 
0.897045 
0.72165 
0.74383 
0.854796 
0.865423 
0.737627 
0.804316 
0.86553 
0.800024 
0.726392 
0.46875 
0.5 
0.650763 
0.610062 
0.492187 
0.580825 
0.694363 
0.72134 
0.46875 
0.5 
0.651921 
0.606954 
0.492187 
0.581463 
0.6921 
0.72134 
0.46875 
0.5 
0.650616 
0.606954 
0.492187 
0.58076 
0.691479 
0.726857 
0.46875 
0.5 
0.6532 
0.610382 
0.492187 
0.581964 
0.696059 
0.966758 
0.983693 
0.934135 
0.943569 
0.986188 
0.963608 
0.9485 
0.963965 
0.46875 
0.681836 
0.651921 
0.5 
0.584638 
0.671363 
0.581463 
0.492188 
0.46875 
0.664917 
0.650763 
0.5 
0.574992 
0.662412 
0.580825 
0.492188 
0.826119 
0.6532 
0.5 
0.668177 
0.747992 
0.581964 
0.589209 
0.754073 
0.46875 
0.667594 
0.650616 
0.5 
0.576541 
0.663641 
0.58076 
0.492188 
0.46875 
0.72134 
0.734969 
0.568817 
0.606954 
0.733246 
0.658257 
0.529739 
0.46875 
0.72134 
0.737123 
0.568817 
0.606954 
0.734012 
0.659305 
0.529739 
0.46875 
0.726392 
0.702763 
0.569788 