# vtk DataFile Version 3.0
TPZGeoMesh VTK Visualization
ASCII

DATASET UNSTRUCTURED_GRID
POINTS 8 float
0 0 0 
1 0 0 
1 1 0 
0 1 0 
0.5 0 0 
1 0.5 0 
0.5 1 0 
0 0.5 0 
CELLS 1 9
8 0 1 2 3 4 5 6 7

CELL_TYPES 1
23

CELL_DATA 1
FIELD FieldData 2
material 1 1 int
1
elindex 1 1 int
5
POINT_DATA 8
SCALARS Sol float
LOOKUP_TABLE default
6.06061e-14 
1.9697e-13 
1.51515e-13 
1.9697e-13 
1.28788e-13 
1.74242e-13 
1.74242e-13 
1.28788e-13 
SCALARS Force float
LOOKUP_TABLE default
0 
0 
0 
0 
0.5 
0.5 
0.5 
0.5 
SCALARS SolExact float
LOOKUP_TABLE default
0 
0 
0 
0 
0 
0 
0 
0 
VECTORS DSol float
1.36364e-13 1.36364e-13 0 
1.36364e-13 -4.54545e-14 0 
-4.54545e-14 -4.54545e-14 0 
-4.54545e-14 1.36364e-13 0 
1.36364e-13 4.54545e-14 0 
4.54545e-14 -4.54545e-14 0 
-4.54545e-14 4.54545e-14 0 
4.54545e-14 1.36364e-13 0 
VECTORS Flux float
-1.36364e-13 -1.36364e-13 0 
-1.36364e-13 4.54545e-14 0 
4.54545e-14 4.54545e-14 0 
4.54545e-14 -1.36364e-13 0 
-1.36364e-13 -4.54545e-14 0 
-4.54545e-14 4.54545e-14 0 
4.54545e-14 -4.54545e-14 0 
-4.54545e-14 -1.36364e-13 0 
VECTORS DSolExact float
0 0 0 
-0 0 0 
-0 -0 0 
0 -0 0 
0 0.25 0 
-0.25 0 0 
0 -0.25 0 
0.25 0 0 
