# vtk DataFile Version 3.0
TPZGeoMesh VTK Visualization
ASCII

DATASET UNSTRUCTURED_GRID
POINTS 24 float
1 0 0 
0.5 0.5 0 
0 0 0 
0.75 0.25 0 
0.25 0.25 0 
0.5 0 0 
0 0 0 
0.5 0.5 0 
0 1 0 
0.25 0.25 0 
0.25 0.75 0 
0 0.5 0 
1 1 0 
0.5 0.5 0 
1 0 0 
0.75 0.75 0 
0.75 0.25 0 
1 0.5 0 
0 1 0 
0.5 0.5 0 
1 1 0 
0.25 0.75 0 
0.75 0.75 0 
0.5 1 0 
CELLS 4 28
6 0 1 2 3 4 5
6 6 7 8 9 10 11
6 12 13 14 15 16 17
6 18 19 20 21 22 23

CELL_TYPES 4
22
22
22
22

CELL_DATA 4
FIELD FieldData 2
material 1 4 int
1
1
1
1
elindex 1 4 int
5
6
7
8
POINT_DATA 24
SCALARS Sol float
LOOKUP_TABLE default
6.20536e-13 
0.0541667 
1.37897e-13 
0.0364583 
0.0364583 
2.77964e-13 
1.37897e-13 
0.0541667 
6.20536e-13 
0.0364583 
0.0364583 
2.77964e-13 
6.89484e-13 
0.0541667 
6.20536e-13 
0.0364583 
0.0364583 
4.67572e-13 
6.20536e-13 
0.0541667 
6.89484e-13 
0.0364583 
0.0364583 
4.67572e-13 
SCALARS Force float
LOOKUP_TABLE default
0 
1 
0 
0.75 
0.75 
0.5 
0 
1 
0 
0.75 
0.75 
0.5 
0 
1 
0 
0.75 
0.75 
0.5 
0 
1 
0 
0.75 
0.75 
0.5 
SCALARS SolExact float
LOOKUP_TABLE default
0 
0.0625 
0 
0.0351562 
0.0351562 
0 
0 
0.0625 
0 
0.0351562 
0.0351562 
0 
0 
0.0625 
0 
0.0351562 
0.0351562 
0 
0 
0.0625 
0 
0.0351562 
0.0351562 
0 
VECTORS DSol float
8.87665e-13 0.183333 0 
1.89637e-13 0.0333333 0 
7.76462e-14 0.183333 0 
5.38646e-13 0.108333 0 
1.33643e-13 0.108333 0 
4.82656e-13 0.183333 0 
0.183333 7.76185e-14 0 
0.0333333 1.89626e-13 0 
0.183333 8.87637e-13 0 
0.108333 1.33622e-13 0 
0.108333 5.38632e-13 0 
0.183333 4.82628e-13 0 
-0.183333 8.1872e-13 0 
-0.0333333 1.89616e-13 0 
-0.183333 -6.80789e-13 0 
-0.108333 5.04166e-13 0 
-0.108333 -2.45595e-13 0 
-0.183333 6.89587e-14 0 
-6.80817e-13 -0.183333 0 
1.89598e-13 -0.0333333 0 
8.18692e-13 -0.183333 0 
-2.45609e-13 -0.108333 0 
5.04145e-13 -0.108333 0 
6.8931e-14 -0.183333 0 
VECTORS Flux float
-8.87665e-13 -0.183333 0 
-1.89637e-13 -0.0333333 0 
-7.76462e-14 -0.183333 0 
-5.38646e-13 -0.108333 0 
-1.33643e-13 -0.108333 0 
-4.82656e-13 -0.183333 0 
-0.183333 -7.76185e-14 0 
-0.0333333 -1.89626e-13 0 
-0.183333 -8.87637e-13 0 
-0.108333 -1.33622e-13 0 
-0.108333 -5.38632e-13 0 
-0.183333 -4.82628e-13 0 
0.183333 -8.1872e-13 0 
0.0333333 -1.89616e-13 0 
0.183333 6.80789e-13 0 
0.108333 -5.04166e-13 0 
0.108333 2.45595e-13 0 
0.183333 -6.89587e-14 0 
6.80817e-13 0.183333 0 
-1.89598e-13 0.0333333 0 
-8.18692e-13 0.183333 0 
2.45609e-13 0.108333 0 
-5.04145e-13 0.108333 0 
-6.8931e-14 0.183333 0 
VECTORS DSolExact float
-0 0 0 
0 0 0 
0 0 0 
-0.09375 0.09375 0 
0.09375 0.09375 0 
0 0.25 0 
0 0 0 
0 0 0 
0 -0 0 
0.09375 0.09375 0 
0.09375 -0.09375 0 
0.25 0 0 
-0 -0 0 
0 0 0 
-0 0 0 
-0.09375 -0.09375 0 
-0.09375 0.09375 0 
-0.25 0 0 
0 -0 0 
0 0 0 
-0 -0 0 
0.09375 -0.09375 0 
-0.09375 -0.09375 0 
0 -0.25 0 
