# vtk DataFile Version 3.0
TPZGeoMesh VTK Visualization
ASCII

DATASET UNSTRUCTURED_GRID
POINTS 1080 float
0.490277 0.506305 0 
0.375476 0.579765 0 
0.38279 0.43549 0 
0.432876 0.543035 0 
0.379133 0.507628 0 
0.436533 0.470898 0 
0.508606 0.788526 0 
0.43162 0.692203 0 
0.568851 0.652438 0 
0.470113 0.740365 0 
0.500235 0.672321 0 
0.538728 0.720482 0 
0.309722 0.309221 0 
0.440728 0.328479 0 
0.38279 0.43549 0 
0.375225 0.31885 0 
0.411759 0.381985 0 
0.346256 0.372356 0 
0.370785 0.824908 0 
0.43162 0.692203 0 
0.508606 0.788526 0 
0.401203 0.758556 0 
0.470113 0.740365 0 
0.439696 0.806717 0 
0.291667 0.708333 0 
0.43162 0.692203 0 
0.370785 0.824908 0 
0.361643 0.700268 0 
0.401203 0.758556 0 
0.331226 0.766621 0 
0.831427 0.630258 0 
0.684025 0.581278 0 
0.789907 0.493965 0 
0.757726 0.605768 0 
0.736966 0.537621 0 
0.810667 0.562111 0 
0.710089 0.687662 0 
0.684025 0.581278 0 
0.831427 0.630258 0 
0.697057 0.63447 0 
0.757726 0.605768 0 
0.770758 0.65896 0 
0.708743 0.297009 0 
0.721192 0.40367 0 
0.577782 0.351119 0 
0.714967 0.350339 0 
0.649487 0.377394 0 
0.643262 0.324064 0 
0.43162 0.692203 0 
0.474337 0.599248 0 
0.568851 0.652438 0 
0.452978 0.645726 0 
0.521594 0.625843 0 
0.500235 0.672321 0 
0.831427 0.630258 0 
0.798912 0.733054 0 
0.710089 0.687662 0 
0.815169 0.681656 0 
0.7545 0.710358 0 
0.770758 0.65896 0 
0.370785 0.824908 0 
0.260156 0.800848 0 
0.291667 0.708333 0 
0.315471 0.812878 0 
0.275912 0.754591 0 
0.331226 0.766621 0 
0.375 1 0 
0.268224 0.896023 0 
0.370785 0.824908 0 
0.321612 0.948012 0 
0.319505 0.860466 0 
0.372892 0.912454 0 
0 0.375 0 
0.101216 0.267634 0 
0.151902 0.365825 0 
0.0506081 0.321317 0 
0.126559 0.316729 0 
0.0759512 0.370412 0 
1 0.625 0 
0.899155 0.728913 0 
0.831427 0.630258 0 
0.949578 0.676956 0 
0.865291 0.679585 0 
0.915713 0.627629 0 
0.625 0 0 
0.732361 0.101257 0 
0.634134 0.152245 0 
0.678681 0.0506285 0 
0.683247 0.126751 0 
0.629567 0.0761227 0 
0.639235 0.846329 0 
0.734711 0.900627 0 
0.625 1 0 
0.686973 0.873478 0 
0.679856 0.950314 0 
0.632117 0.923164 0 
0.360765 0.153671 0 
0.265289 0.0993728 0 
0.375 0 0 
0.313027 0.126522 0 
0.320144 0.0496864 0 
0.367883 0.0768355 0 
0.8426 0.360612 0 
0.900006 0.265263 0 
1 0.375 0 
0.871303 0.312938 0 
0.950003 0.320132 0 
0.9213 0.367806 0 
0.157915 0.63982 0 
0.10008 0.734809 0 
0 0.625 0 
0.128998 0.687315 0 
0.0500401 0.679904 0 
0.0789576 0.63241 0 
0.490277 0.506305 0 
0.493158 0.409962 0 
0.62639 0.474573 0 
0.491717 0.458134 0 
0.559774 0.442267 0 
0.558333 0.490439 0 
0.62639 0.474573 0 
0.493158 0.409962 0 
0.577782 0.351119 0 
0.559774 0.442267 0 
0.53547 0.38054 0 
0.602086 0.412846 0 
0.577782 0.351119 0 
0.721192 0.40367 0 
0.62639 0.474573 0 
0.649487 0.377394 0 
0.673791 0.439121 0 
0.602086 0.412846 0 
0.157915 0.63982 0 
0.0873276 0.55569 0 
0.205158 0.50295 0 
0.122621 0.597755 0 
0.146243 0.52932 0 
0.181537 0.571385 0 
0.360765 0.153671 0 
0.441327 0.0869659 0 
0.49609 0.213061 0 
0.401046 0.120318 0 
0.468708 0.150013 0 
0.428428 0.183366 0 
0.8426 0.360612 0 
0.913732 0.441307 0 
0.789907 0.493965 0 
0.878166 0.40096 0 
0.851819 0.467636 0 
0.816254 0.427289 0 
0.639235 0.846329 0 
0.558922 0.913788 0 
0.508606 0.788526 0 
0.599078 0.880058 0 
0.533764 0.851157 0 
0.57392 0.817428 0 
0.568851 0.652438 0 
0.684025 0.581278 0 
0.710089 0.687662 0 
0.626438 0.616858 0 
0.697057 0.63447 0 
0.63947 0.67005 0 
0.634134 0.152245 0 
0.534724 0.102664 0 
0.625 0 0 
0.584429 0.127455 0 
0.579862 0.0513319 0 
0.629567 0.0761227 0 
0.831427 0.630258 0 
0.907666 0.536735 0 
1 0.625 0 
0.869546 0.583496 0 
0.953833 0.580867 0 
0.915713 0.627629 0 
0.370785 0.824908 0 
0.463988 0.906086 0 
0.375 1 0 
0.417386 0.865497 0 
0.419494 0.953043 0 
0.372892 0.912454 0 
0.151902 0.365825 0 
0.0943286 0.463365 0 
0 0.375 0 
0.123116 0.414595 0 
0.0471643 0.419183 0 
0.0759512 0.370412 0 
0.309722 0.309221 0 
0.38483 0.252019 0 
0.440728 0.328479 0 
0.347276 0.28062 0 
0.412779 0.290249 0 
0.375225 0.31885 0 
0.577782 0.351119 0 
0.440728 0.328479 0 
0.49609 0.213061 0 
0.509255 0.339799 0 
0.468409 0.27077 0 
0.536936 0.28209 0 
1 0.75 0 
0.899155 0.728913 0 
1 0.625 0 
0.949578 0.739456 0 
0.949578 0.676956 0 
1 0.6875 0 
0.75 0 0 
0.732361 0.101257 0 
0.625 0 0 
0.741181 0.0506285 0 
0.678681 0.0506285 0 
0.6875 0 0 
0.25 1 0 
0.268224 0.896023 0 
0.375 1 0 
0.259112 0.948012 0 
0.321612 0.948012 0 
0.3125 1 0 
0 0.25 0 
0.101216 0.267634 0 
0 0.375 0 
0.0506081 0.258817 0 
0.0506081 0.321317 0 
0 0.3125 0 
0.375 0 0 
0.265289 0.0993728 0 
0.25 0 0 
0.320144 0.0496864 0 
0.257644 0.0496864 0 
0.3125 0 0 
1 0.375 0 
0.900006 0.265263 0 
1 0.25 0 
0.950003 0.320132 0 
0.950003 0.257632 0 
1 0.3125 0 
0.625 1 0 
0.734711 0.900627 0 
0.75 1 0 
0.679856 0.950314 0 
0.742356 0.950314 0 
0.6875 1 0 
0 0.625 0 
0.10008 0.734809 0 
0 0.75 0 
0.0500401 0.679904 0 
0.0500401 0.742404 0 
0 0.6875 0 
0.375476 0.579765 0 
0.297866 0.503391 0 
0.38279 0.43549 0 
0.336671 0.541578 0 
0.340328 0.469441 0 
0.379133 0.507628 0 
0.8426 0.360612 0 
0.721192 0.40367 0 
0.708743 0.297009 0 
0.781896 0.382141 0 
0.714967 0.350339 0 
0.775672 0.328811 0 
0.789907 0.493965 0 
0.721192 0.40367 0 
0.8426 0.360612 0 
0.755549 0.448817 0 
0.781896 0.382141 0 
0.816254 0.427289 0 
0.38279 0.43549 0 
0.493158 0.409962 0 
0.490277 0.506305 0 
0.437974 0.422726 0 
0.491717 0.458134 0 
0.436533 0.470898 0 
1 0.375 0 
0.913732 0.441307 0 
0.8426 0.360612 0 
0.956866 0.408154 0 
0.878166 0.40096 0 
0.9213 0.367806 0 
0.625 1 0 
0.558922 0.913788 0 
0.639235 0.846329 0 
0.591961 0.956894 0 
0.599078 0.880058 0 
0.632117 0.923164 0 
0 0.625 0 
0.0873276 0.55569 0 
0.157915 0.63982 0 
0.0436638 0.590345 0 
0.122621 0.597755 0 
0.0789576 0.63241 0 
0.375 0 0 
0.441327 0.0869659 0 
0.360765 0.153671 0 
0.408163 0.0434829 0 
0.401046 0.120318 0 
0.367883 0.0768355 0 
0.710089 0.687662 0 
0.615452 0.74696 0 
0.568851 0.652438 0 
0.66277 0.717311 0 
0.592151 0.699699 0 
0.63947 0.67005 0 
0.38279 0.43549 0 
0.260291 0.400861 0 
0.309722 0.309221 0 
0.321541 0.418176 0 
0.285007 0.355041 0 
0.346256 0.372356 0 
0.577782 0.351119 0 
0.612988 0.251899 0 
0.708743 0.297009 0 
0.595385 0.301509 0 
0.660865 0.274454 0 
0.643262 0.324064 0 
0.568851 0.652438 0 
0.615452 0.74696 0 
0.508606 0.788526 0 
0.592151 0.699699 0 
0.562029 0.767743 0 
0.538728 0.720482 0 
0.49609 0.213061 0 
0.612988 0.251899 0 
0.577782 0.351119 0 
0.554539 0.23248 0 
0.595385 0.301509 0 
0.536936 0.28209 0 
0.205158 0.50295 0 
0.0943286 0.463365 0 
0.151902 0.365825 0 
0.149743 0.483158 0 
0.123116 0.414595 0 
0.17853 0.434387 0 
0.508606 0.788526 0 
0.463988 0.906086 0 
0.370785 0.824908 0 
0.486297 0.847306 0 
0.417386 0.865497 0 
0.439696 0.806717 0 
0.789907 0.493965 0 
0.907666 0.536735 0 
0.831427 0.630258 0 
0.848787 0.51535 0 
0.869546 0.583496 0 
0.810667 0.562111 0 
0.49609 0.213061 0 
0.534724 0.102664 0 
0.634134 0.152245 0 
0.515407 0.157862 0 
0.584429 0.127455 0 
0.565112 0.182653 0 
0.157915 0.63982 0 
0.265616 0.597886 0 
0.291667 0.708333 0 
0.211765 0.618853 0 
0.278641 0.65311 0 
0.224791 0.674077 0 
0.205158 0.50295 0 
0.265616 0.597886 0 
0.157915 0.63982 0 
0.235387 0.550418 0 
0.211765 0.618853 0 
0.181537 0.571385 0 
0.375476 0.579765 0 
0.43162 0.692203 0 
0.291667 0.708333 0 
0.403548 0.635984 0 
0.361643 0.700268 0 
0.333571 0.644049 0 
0.291667 0.708333 0 
0.200011 0.743044 0 
0.157915 0.63982 0 
0.245839 0.725689 0 
0.178963 0.691432 0 
0.224791 0.674077 0 
0.708743 0.297009 0 
0.800192 0.258125 0 
0.8426 0.360612 0 
0.754467 0.277567 0 
0.821396 0.309369 0 
0.775672 0.328811 0 
0.49609 0.213061 0 
0.38483 0.252019 0 
0.360765 0.153671 0 
0.44046 0.23254 0 
0.372798 0.202845 0 
0.428428 0.183366 0 
0.634134 0.152245 0 
0.612988 0.251899 0 
0.49609 0.213061 0 
0.623561 0.202072 0 
0.554539 0.23248 0 
0.565112 0.182653 0 
0.508606 0.788526 0 
0.615452 0.74696 0 
0.639235 0.846329 0 
0.562029 0.767743 0 
0.627343 0.796645 0 
0.57392 0.817428 0 
0.151902 0.365825 0 
0.260291 0.400861 0 
0.205158 0.50295 0 
0.206097 0.383343 0 
0.232725 0.451906 0 
0.17853 0.434387 0 
0.789907 0.493965 0 
0.913732 0.441307 0 
0.907666 0.536735 0 
0.851819 0.467636 0 
0.910699 0.489021 0 
0.848787 0.51535 0 
0.508606 0.788526 0 
0.558922 0.913788 0 
0.463988 0.906086 0 
0.533764 0.851157 0 
0.511455 0.909937 0 
0.486297 0.847306 0 
0.49609 0.213061 0 
0.441327 0.0869659 0 
0.534724 0.102664 0 
0.468708 0.150013 0 
0.488025 0.0948148 0 
0.515407 0.157862 0 
0.205158 0.50295 0 
0.0873276 0.55569 0 
0.0943286 0.463365 0 
0.146243 0.52932 0 
0.0908281 0.509528 0 
0.149743 0.483158 0 
0.490277 0.506305 0 
0.474337 0.599248 0 
0.375476 0.579765 0 
0.482307 0.552777 0 
0.424906 0.589506 0 
0.432876 0.543035 0 
0.291667 0.708333 0 
0.265616 0.597886 0 
0.375476 0.579765 0 
0.278641 0.65311 0 
0.320546 0.588826 0 
0.333571 0.644049 0 
0.615452 0.74696 0 
0.721957 0.788531 0 
0.639235 0.846329 0 
0.668705 0.767746 0 
0.680596 0.81743 0 
0.627343 0.796645 0 
0.625 0 0 
0.534724 0.102664 0 
0.5 0 0 
0.579862 0.0513319 0 
0.517362 0.0513319 0 
0.5625 0 0 
1 0.625 0 
0.907666 0.536735 0 
1 0.5 0 
0.953833 0.580867 0 
0.953833 0.518367 0 
1 0.5625 0 
0 0.375 0 
0.0943286 0.463365 0 
0 0.5 0 
0.0471643 0.419183 0 
0.0471643 0.481683 0 
0 0.4375 0 
0.375 1 0 
0.463988 0.906086 0 
0.5 1 0 
0.419494 0.953043 0 
0.481994 0.953043 0 
0.4375 1 0 
0.710089 0.687662 0 
0.721957 0.788531 0 
0.615452 0.74696 0 
0.716023 0.738097 0 
0.668705 0.767746 0 
0.66277 0.717311 0 
0.789907 0.493965 0 
0.684025 0.581278 0 
0.62639 0.474573 0 
0.736966 0.537621 0 
0.655207 0.527925 0 
0.708148 0.484269 0 
0.62639 0.474573 0 
0.721192 0.40367 0 
0.789907 0.493965 0 
0.673791 0.439121 0 
0.755549 0.448817 0 
0.708148 0.484269 0 
0.62639 0.474573 0 
0.573043 0.555912 0 
0.490277 0.506305 0 
0.599716 0.515242 0 
0.53166 0.531109 0 
0.558333 0.490439 0 
0 1 0 
0.0971151 0.902885 0 
0.125 1 0 
0.0485576 0.951442 0 
0.111058 0.951442 0 
0.0625 1 0 
0 0 0 
0.0971151 0.0971151 0 
0 0.125 0 
[...]
CELL_DATA 180
FIELD FieldData 2
material 1 180 int
1
1
1
1
1
1
1
1
1
1
1
1
1
1
1
1
1
1
1
1
1
1
1
1
1
1
1
1
1
1
1
1
1
1
1
1
1
1
1
1
1
1
1
1
1
1
1
1
1
1
1
1
1
1
1
1
1
1
1
1
1
1
1
1
1
1
1
1
1
1
1
1
1
1
1
1
1
1
1
1
1
1
1
1
1
1
1
1
1
1
1
1
1
1
1
1
1
1
1
1
1
1
1
1
1
1
1
1
1
1
1
1
1
1
1
1
1
1
1
1
1
1
1
1
1
1
1
1
1
1
1
1
1
1
1
1
1
1
1
1
1
1
1
1
1
1
1
1
1
1
1
1
1
1
1
1
1
1
1
1
1
1
1
1
1
1
1
1
1
1
1
1
1
1
1
1
1
1
1
1
elindex 1 180 int
33
34
35
36
37
38
39
40
41
42
43
44
45
46
47
48
49
50
51
52
53
54
55
56
57
58
59
60
61
62
63
64
65
66
67
68
69
70
71
72
73
74
75
76
77
78
79
80
81
82
83
84
85
86
87
88
89
90
91
92
93
94
95
96
97
98
99
100
101
102
103
104
105
106
107
108
109
110
111
112
113
114
115
116
117
118
119
120
121
122
123
124
125
126
127
128
129
130
131
132
133
134
135
136
137
138
139
140
141
142
143
144
145
146
147
148
149
150
151
152
153
154
155
156
157
158
159
160
161
162
163
164
165
166
167
168
169
170
171
172
173
174
175
176
177
178
179
180
181
182
183
184
185
186
187
188
189
190
191
192
193
194
195
196
197
198
199
200
201
202
203
204
205
206
207
208
209
210
211
212
POINT_DATA 1080
SCALARS Sol float
LOOKUP_TABLE default
0.0624667 
0.0571322 
0.0580838 
0.0609197 
0.0588352 
0.0612851 
0.0416838 
0.0522695 
0.0556207 
0.0478849 
0.0550718 
0.05004 
0.0456592 
0.0543705 
0.0580838 
0.0509208 
0.0571798 
0.0529019 
0.0336995 
0.0522695 
0.0416838 
0.0439987 
0.0478849 
0.0384166 
0.042677 
0.0522695 
0.0336995 
0.0484535 
0.0439987 
0.0396266 
0.032657 
0.0526078 
0.0414867 
0.0438444 
0.0481895 
0.0377851 
0.0442149 
0.0526078 
0.032657 
0.048971 
0.0438444 
0.039707 
0.0430944 
0.0484025 
0.0555865 
0.0463804 
0.0534882 
0.0502669 
0.0522695 
0.0598781 
0.0556207 
0.0566874 
0.0584301 
0.0550718 
0.032657 
0.0314336 
0.0442149 
0.0326894 
0.0381107 
0.039707 
0.0336995 
0.0306945 
0.042677 
0.0328413 
0.0369967 
0.0396266 
1.067e-12 
0.018292 
0.0336995 
0.0107468 
0.0260935 
0.0186799 
1.06554e-12 
0.0178384 
0.0298837 
0.0104742 
0.0239128 
0.0163709 
1.06703e-12 
0.0179221 
0.032657 
0.0104655 
0.02537 
0.0180387 
1.06677e-12 
0.017844 
0.02994 
0.0104784 
0.0239438 
0.0164067 
0.0299906 
0.0174503 
1.06709e-12 
0.0237566 
0.0102724 
0.0164968 
0.0299891 
0.0174513 
1.06569e-12 
0.0237561 
0.0102725 
0.0164969 
0.0305773 
0.0175452 
1.0671e-12 
0.0241005 
0.0103325 
0.0168608 
0.030644 
0.0175556 
1.06706e-12 
0.0241387 
0.0103405 
0.0169078 
0.0624667 
0.0604579 
0.0583575 
0.0620423 
0.0607845 
0.0616252 
0.0583575 
0.0604579 
0.0555865 
0.0607845 
0.0586347 
0.0580743 
0.0555865 
0.0484025 
0.0583575 
0.0534882 
0.0541332 
0.0580743 
0.030644 
0.0196783 
0.0407777 
0.0258656 
0.0310962 
0.0363858 
0.0299891 
0.0195781 
0.0419268 
0.0254204 
0.0317406 
0.0366644 
0.0305773 
0.0194337 
0.0414867 
0.0256946 
0.0314135 
0.0367005 
0.0299906 
0.0194202 
0.0416838 
0.0253493 
0.0315175 
0.0364906 
0.0556207 
0.0526078 
0.0442149 
0.0553075 
0.048971 
0.0509705 
0.02994 
0.0229243 
1.06677e-12 
0.0270081 
0.0118643 
0.0164067 
0.032657 
0.0208388 
1.06703e-12 
0.0275661 
0.0107231 
0.0180387 
0.0336995 
0.0211616 
1.067e-12 
0.0283073 
0.0109003 
0.0186799 
0.0298837 
0.0212458 
1.06554e-12 
0.0262 
0.0109429 
0.0163709 
0.0456592 
0.0446275 
0.0543705 
0.0457581 
0.0499318 
0.0509208 
0.0555865 
0.0543705 
0.0419268 
0.0560565 
0.0491638 
0.0503477 
8.52352e-13 
0.0179221 
1.06703e-12 
0.00923156 
0.0104655 
6.76589e-13 
8.52326e-13 
0.017844 
1.06677e-12 
0.00922808 
0.0104784 
6.76497e-13 
8.52266e-13 
0.018292 
1.067e-12 
0.00946827 
0.0107468 
6.76556e-13 
8.44252e-13 
0.0178384 
1.06554e-12 
0.0092247 
0.0104742 
6.733e-13 
1.06569e-12 
0.0174513 
8.44261e-13 
0.0102725 
0.00903855 
6.73351e-13 
1.0671e-12 
0.0175452 
8.52335e-13 
0.0103325 
0.00909112 
6.76614e-13 
1.06709e-12 
0.0174503 
8.52353e-13 
0.0102724 
0.00903824 
6.76616e-13 
1.06706e-12 
0.0175556 
8.52332e-13 
0.0103405 
0.00909772 
6.76597e-13 
0.0571322 
0.0522825 
0.0580838 
0.0554406 
0.055913 
0.0588352 
0.0305773 
0.0484025 
0.0430944 
0.0402677 
0.0463804 
0.0384015 
0.0414867 
0.0484025 
0.0305773 
0.0456921 
0.0402677 
0.0367005 
0.0580838 
0.0604579 
0.0624667 
0.0600684 
0.0620423 
0.0612851 
1.0671e-12 
0.0194337 
0.0305773 
0.00997471 
0.0256946 
0.0168608 
1.06709e-12 
0.0194202 
0.0299906 
0.00996766 
0.0253493 
0.0164968 
1.06706e-12 
0.0196783 
0.030644 
0.010103 
0.0258656 
0.0169078 
1.06569e-12 
0.0195781 
0.0299891 
0.0100521 
0.0254204 
0.0164969 
0.0442149 
0.0447323 
0.0556207 
0.0453203 
0.0507405 
0.0509705 
0.0580838 
0.0462442 
0.0456592 
0.0530709 
0.04666 
0.0529019 
0.0555865 
0.0447047 
0.0430944 
0.0507302 
0.0446278 
0.0502669 
0.0556207 
0.0447323 
0.0416838 
0.0507405 
0.0438913 
0.05004 
0.0419268 
0.0447047 
0.0555865 
0.044079 
0.0507302 
0.0503477 
0.0407777 
0.0212458 
0.0298837 
0.0317836 
0.0262 
0.0360313 
0.0416838 
0.0211616 
0.0336995 
0.0323121 
0.0283073 
0.0384166 
0.0414867 
0.0208388 
0.032657 
0.0320485 
0.0275661 
0.0377851 
0.0419268 
0.0229243 
0.02994 
0.0331931 
0.0270081 
0.0366894 
0.030644 
0.046898 
0.042677 
0.039377 
0.045539 
0.0382849 
0.0407777 
0.046898 
0.030644 
0.044539 
0.039377 
0.0363858 
0.0571322 
0.0522695 
0.042677 
0.0557232 
0.0484535 
0.0509604 
0.042677 
0.030548 
0.030644 
0.0369083 
0.0313471 
0.0382849 
0.0430944 
0.0306137 
0.0305773 
0.0371462 
0.0313415 
0.0384015 
0.0419268 
0.0446275 
0.0299891 
0.0439803 
0.0378141 
0.0366644 
0.02994 
0.0447047 
0.0419268 
0.0378525 
0.044079 
0.0366894 
0.0416838 
0.0447323 
0.0299906 
0.0438913 
0.0378776 
0.0364906 
0.0298837 
0.0462442 
0.0407777 
0.0386826 
0.0442287 
0.0360313 
0.0414867 
0.0194337 
0.0208388 
0.0314135 
0.0203276 
0.0320485 
0.0416838 
0.0194202 
0.0211616 
0.0315175 
0.0204824 
0.0323121 
0.0419268 
0.0195781 
0.0229243 
0.0317406 
0.0214495 
0.0331931 
0.0407777 
0.0196783 
0.0212458 
0.0310962 
0.0206419 
0.0317836 
0.0624667 
0.0598781 
0.0571322 
0.061724 
0.0591335 
0.0609197 
0.042677 
0.046898 
0.0571322 
0.045539 
0.0527208 
0.0509604 
0.0447323 
0.0334736 
0.0299906 
0.0395041 
0.0324408 
0.0378776 
1.06677e-12 
0.0229243 
1.13992e-12 
0.0118643 
0.0121646 
7.778e-13 
1.06703e-12 
0.0208388 
1.14029e-12 
0.0107231 
0.0109989 
7.78003e-13 
1.06554e-12 
0.0212458 
1.13998e-12 
0.0109429 
0.0112255 
7.77386e-13 
1.067e-12 
0.0211616 
1.14026e-12 
0.0109003 
0.0111779 
7.77986e-13 
0.0442149 
0.0334736 
0.0447323 
0.0393083 
0.0395041 
0.0453203 
0.0414867 
0.0526078 
0.0583575 
0.0481895 
0.0562979 
0.0516182 
0.0583575 
0.0484025 
0.0414867 
0.0541332 
0.0456921 
0.0516182 
0.0583575 
0.0604006 
0.0624667 
0.0599581 
0.062007 
0.0616252 
2.83202e-13 
0.00769665 
5.28502e-13 
0.00213001 
0.00455763 
2.83636e-13 
8.10496e-15 
0.00769616 
4.81313e-13 
0.00212987 
0.00455727 
1.7285e-13 
5.28514e-13 
0.00769646 
2.83201e-13 
0.00455743 
0.00212995 
2.83639e-13 
2.832e-13 
0.00769644 
5.28516e-13 
0.00212993 
0.0045574 
2.8364e-13 
4.81315e-13 
0.00769616 
8.10496e-15 
0.00455724 
0.00212987 
1.7285e-13 
2.83201e-13 
0.00769646 
5.28515e-13 
0.00212995 
0.00455742 
2.8364e-13 
5.28515e-13 
0.00769644 
2.832e-13 
0.00455736 
0.00212993 
2.8364e-13 
5.28518e-13 
0.00769665 
2.83202e-13 
0.00455752 
0.00213001 
2.83641e-13 
0.0556207 
0.0604006 
0.0526078 
0.0585828 
0.0572707 
0.0553075 
0.0446275 
0.0336368 
0.0299891 
0.03951 
0.0324821 
0.0378141 
0.0543705 
0.0604579 
0.0580838 
0.057969 
0.0600684 
0.0571798 
0.0456592 
0.0336368 
0.0446275 
0.0400582 
0.03951 
0.0457581 
0.0543705 
0.0446275 
0.0419268 
0.0499318 
0.0439803 
0.0491638 
0.0526078 
0.0604006 
0.0583575 
0.0572707 
0.0599581 
0.0562979 
0.0462442 
0.0522825 
0.0407777 
0.0498377 
0.0470654 
0.0442287 
0.0571322 
0.0598781 
0.0522695 
0.0591335 
0.0566874 
0.0557232 
0.0580838 
0.0522825 
0.0462442 
0.055913 
0.0498377 
0.0530709 
0.0447047 
0.0323967 
0.0430944 
0.0389452 
0.0381692 
0.0446278 
0.0298837 
0.0342244 
0.0462442 
0.03274 
0.040718 
0.0386826 
0.0462442 
0.0342244 
0.0456592 
0.040718 
0.0403661 
0.04666 
0.02994 
0.0323967 
0.0447047 
0.0318016 
0.0389452 
0.0378525 
1.14029e-12 
0.0194337 
1.0671e-12 
0.0102889 
0.00997471 
7.7801e-13 
1.13992e-12 
0.0195781 
1.06569e-12 
0.0103683 
0.0100521 
7.77396e-13 
1.14026e-12 
0.0194202 
1.06709e-12 
0.010282 
0.00996766 
7.77996e-13 
1.13998e-12 
0.0196783 
1.06706e-12 
0.0104133 
0.010103 
7.77889e-13 
0.0555865 
0.0604579 
0.0543705 
0.0586347 
0.057969 
0.0560565 
8.44261e-13 
0.0100721 
4.81315e-13 
0.00597662 
0.00458248 
4.67544e-13 
8.52335e-13 
0.0100879 
5.28514e-13 
0.00598613 
0.00459002 
4.86544e-13 
5.28502e-13 
0.0101815 
8.52266e-13 
0.00462587 
0.00602648 
4.86517e-13 
4.81313e-13 
0.0101055 
8.44252e-13 
0.00459093 
0.00598236 
4.6754e-13 
5.28515e-13 
0.0101068 
8.52326e-13 
0.00459154 
0.00598299 
4.86542e-13 
5.28516e-13 
0.0101259 
8.52352e-13 
0.00459489 
0.0059832 
4.8655e-13 
8.52353e-13 
0.010072 
5.28515e-13 
0.00597648 
0.00458251 
4.86551e-13 
8.52332e-13 
0.0100895 
5.28518e-13 
0.00598733 
0.00459092 
4.86544e-13 
0.0229243 
0.0195781 
1.13992e-12 
0.0214495 
0.0103683 
0.0121646 
0.0208388 
0.0194337 
1.14029e-12 
0.0203276 
0.0102889 
0.0109989 
0.0212458 
0.0196783 
1.13998e-12 
0.0206419 
0.0104133 
0.0112255 
0.0211616 
0.0194202 
1.14026e-12 
0.0204824 
0.010282 
0.0111779 
0.0299906 
0.0334736 
0.0174503 
0.0324408 
0.0259691 
0.0237566 
0.0299891 
0.0336368 
0.0174513 
0.0324821 
0.0260214 
0.0237561 
0.0305773 
0.0306137 
0.0175452 
0.0313415 
0.0246214 
0.0241005 
0.030644 
0.030548 
0.0175556 
0.0313471 
0.0246035 
0.0241387 
0.0197395 
0.0342244 
0.0178384 
0.0271597 
0.0264839 
0.0199189 
0.0197416 
0.0323967 
0.017844 
0.0262529 
0.025515 
0.0199219 
0.0197421 
0.0314336 
0.0179221 
0.0257032 
0.0252059 
0.0200098 
0.0197432 
0.0306945 
0.018292 
0.0253069 
0.0249996 
0.0201115 
0.0624667 
0.0604006 
0.0598781 
0.062007 
0.0608565 
0.061724 
0.0598781 
0.0604006 
0.0556207 
0.0608565 
0.0585828 
0.0584301 
0.0334736 
0.0314336 
0.0197421 
0.0331523 
0.0257032 
0.026751 
0.030548 
0.0306945 
0.0197432 
0.0311835 
0.0253069 
0.0252351 
0.0336368 
0.0342244 
0.0197395 
0.0347652 
0.0271597 
0.0268612 
0.0306137 
0.0323967 
0.0197416 
0.0322631 
0.0262529 
0.0252786 
0.0407777 
0.0522825 
0.046898 
0.0470654 
0.0500707 
0.044539 
0.046898 
0.0522825 
0.0571322 
0.0500707 
0.0554406 
0.0527208 
0.0197416 
0.0100879 
0.0175452 
0.0154088 
0.0137331 
0.0198253 
0.0197395 
0.0100721 
0.0174513 
0.0154013 
0.0136807 
0.0197867 
0.0197432 
0.0100895 
0.0175556 
0.0154095 
0.0137385 
0.0198278 
0.0197421 
0.010072 
0.0174503 
0.0154018 
0.0136803 
0.019786 
0.0178384 
0.0101055 
0.0197395 
0.0138804 
0.0153887 
0.0199189 
0.017844 
0.0101068 
0.0197416 
0.0138839 
0.0153898 
0.0199219 
0.018292 
0.0101815 
0.0197432 
0.0141331 
0.0154246 
0.0201115 
0.0179221 
0.0101259 
0.0197421 
0.0139388 
0.0154096 
0.0200098 
0.0174513 
0.0336368 
0.0197395 
0.0260214 
0.0268612 
0.0197867 
0.0175556 
0.030548 
0.0197432 
0.0246035 
0.0252351 
0.0198278 
0.0175452 
0.0306137 
0.0197416 
0.0246214 
0.0252786 
0.0198253 
0.0174503 
0.0334736 
0.0197421 
0.0259691 
0.026751 
0.019786 
0.0175556 
0.0100895 
8.52332e-13 
0.0137385 
0.00598733 
0.00909772 
8.52352e-13 
0.0101259 
0.0179221 
0.0059832 
0.0139388 
0.00923156 
0.0174513 
0.0100721 
8.44261e-13 
0.0136807 
0.00597662 
0.00903855 
0.0174503 
0.010072 
8.52353e-13 
0.0136803 
0.00597648 
0.00903824 
8.52266e-13 
0.0101815 
0.018292 
0.00602648 
0.0141331 
0.00946827 
0.0175452 
0.0100879 
8.52335e-13 
0.0137331 
0.00598613 
0.00909112 
8.52326e-13 
0.0101068 
0.017844 
0.00598299 
0.0138839 
0.00922808 
8.44252e-13 
0.0101055 
0.0178384 
0.00598236 
0.0138804 
0.0092247 
0.017844 
0.0323967 
0.02994 
0.025515 
0.0318016 
0.0239438 
0.0178384 
0.0342244 
0.0298837 
0.0264839 
0.03274 
0.0239128 
0.0179221 
0.0314336 
0.032657 
0.0252059 
0.0326894 
0.02537 
0.018292 
0.0306945 
0.0336995 
0.0249996 
0.0328413 
0.0260935 
0.00769646 
0.0100879 
0.0197416 
0.00934339 
0.0154088 
0.0133144 
0.00769665 
0.0100895 
0.0197432 
0.00934402 
0.0154095 
0.0133149 
0.00769644 
0.010072 
0.0197421 
0.00933721 
0.0154018 
0.0133145 
0.00769616 
0.0100721 
0.0197395 
0.00933695 
0.0154013 
0.0133137 
0.0197421 
0.0101259 
0.00769644 
0.0154096 
0.00937586 
0.0133145 
0.0197432 
0.0101815 
0.00769665 
0.0154246 
0.00939136 
0.0133149 
0.0197416 
0.0101068 
0.00769646 
0.0153898 
0.0093606 
0.0133144 
0.0197395 
0.0101055 
0.00769616 
0.0153887 
0.00935982 
0.0133137 
0.042677 
0.0306945 
0.030548 
0.0369967 
0.0311835 
0.0369083 
0.0442149 
0.0314336 
0.0334736 
0.0381107 
0.0331523 
0.0393083 
0.0430944 
0.0323967 
0.0306137 
0.0381692 
0.0322631 
0.0371462 
0.0456592 
0.0342244 
0.0336368 
0.0403661 
0.0347652 
0.0400582 
4.81315e-13 
0.0100721 
0.00769616 
0.00458248 
0.00933695 
0.00455724 
5.28518e-13 
0.0100895 
0.00769665 
0.00459092 
0.00934402 
0.00455752 
5.28514e-13 
0.0100879 
0.00769646 
0.00459002 
0.00934339 
0.00455743 
5.28515e-13 
0.010072 
0.00769644 
0.00458251 
0.00933721 
0.00455736 
0.00769646 
0.0101068 
5.28515e-13 
0.0093606 
0.00459154 
0.00455742 
0.00769616 
0.0101055 
4.81313e-13 
0.00935982 
0.00459093 
0.00455727 
0.00769665 
0.0101815 
5.28502e-13 
0.00939136 
0.00462587 
0.00455763 
0.00769644 
0.0101259 
5.28516e-13 
0.00937586 
0.00459489 
0.0045574 
SCALARS Force float
LOOKUP_TABLE default
0.999731 
0.956263 
0.964201 
0.987285 
0.970666 
0.99025 
0.833357 
0.916764 
0.944044 
0.882663 
0.940611 
0.899775 
0.854796 
0.934135 
0.964201 
0.903232 
0.956572 
0.92014 
0.755477 
0.916764 
0.833357 
0.846776 
0.882663 
0.804576 
0.826389 
0.916764 
0.755477 
0.8815 
0.846776 
0.800857 
0.746379 
0.919057 
0.831835 
0.844781 
0.884863 
0.799257 
0.841291 
0.919057 
0.746379 
0.886173 
0.844781 
0.802844 
0.830442 
0.883589 
0.943569 
0.862781 
0.925243 
0.897045 
0.916764 
0.978982 
0.944044 
0.953106 
0.967394 
0.940611 
0.746379 
0.712675 
0.841291 
0.735339 
0.781958 
0.802844 
0.755477 
0.703931 
0.826389 
0.736113 
0.769936 
0.800857 
0.46875 
0.578891 
0.755477 
0.534927 
0.674972 
0.627451 
0.46875 
0.573955 
0.72165 
0.532238 
0.653908 
0.606779 
0.46875 
0.576548 
0.746379 
0.533133 
0.668623 
0.621787 
0.46875 
0.574024 
0.72215 
0.532277 
0.654211 
0.607081 
0.72134 
0.568817 
0.46875 
0.651111 
0.529739 
0.606954 
0.72134 
0.568817 
0.46875 
0.651111 
0.529739 
0.606954 
0.726392 
0.569788 
0.46875 
0.654284 
0.53029 
0.610062 
0.726857 
0.569858 
0.46875 
0.654541 
0.530341 
0.610382 
0.999731 
0.983693 
0.966758 
0.996357 
0.986188 
0.993012 
0.966758 
0.983693 
0.943569 
0.986188 
0.968943 
0.963965 
0.943569 
0.883589 
0.966758 
0.925243 
0.932181 
0.963965 
0.726857 
0.6532 
0.826119 
0.696059 
0.747992 
0.78697 
0.72134 
0.651921 
0.835301 
0.6921 
0.75306 
0.789241 
0.726392 
0.650763 
0.831835 
0.694363 
0.750351 
0.789393 
0.72134 
0.650616 
0.833357 
0.691479 
0.751098 
0.787551 
0.944044 
0.919057 
0.841291 
0.940715 
0.886173 
0.903262 
0.72215 
0.681836 
0.46875 
0.708163 
0.584638 
0.607081 
0.746379 
0.664917 
0.46875 
0.712928 
0.574992 
0.621787 
0.755477 
0.667594 
0.46875 
0.719174 
0.576541 
0.627451 
0.72165 
0.668177 
0.46875 
0.701328 
0.576817 
0.606779 
0.854796 
0.850482 
0.934135 
0.857095 
0.896794 
0.903232 
0.943569 
0.934135 
0.835301 
0.9485 
0.892911 
0.902302 
0.375 
0.576548 
0.46875 
0.481081 
0.533133 
0.429688 
0.375 
0.574024 
0.46875 
0.479794 
0.532277 
0.429688 
0.375 
0.578891 
0.46875 
0.482517 
0.534927 
0.429688 
0.375 
0.573955 
0.46875 
0.479755 
0.532238 
0.429688 
0.46875 
0.568817 
0.375 
0.529739 
0.476963 
0.429687 
0.46875 
0.569788 
0.375 
0.53029 
0.47751 
0.429687 
0.46875 
0.568817 
0.375 
0.529739 
0.476963 
0.429687 
0.46875 
0.569858 
0.375 
0.530341 
0.477552 
0.429687 
0.956263 
0.918261 
0.964201 
0.94319 
0.947142 
0.970666 
0.726392 
0.883589 
0.830442 
0.813288 
0.862781 
0.789399 
0.831835 
0.883589 
0.726392 
0.86415 
0.813288 
0.789393 
0.964201 
0.983693 
0.999731 
0.980363 
0.996357 
0.99025 
0.46875 
0.650763 
0.726392 
0.565676 
0.694363 
0.610062 
0.46875 
0.650616 
0.72134 
0.565583 
0.691479 
0.606954 
0.46875 
0.6532 
0.726857 
0.56719 
0.696059 
0.610382 
0.46875 
0.651921 
0.72134 
0.566316 
0.6921 
0.606954 
0.841291 
0.851363 
0.944044 
0.852563 
0.903257 
0.903262 
0.964201 
0.865423 
0.854796 
0.922914 
0.86553 
0.92014 
0.943569 
0.851359 
0.830442 
0.903006 
0.846503 
0.897045 
0.944044 
0.851363 
0.833357 
0.903257 
0.848932 
0.899775 
0.835301 
0.851359 
0.943569 
0.850917 
0.903006 
0.902302 
0.826119 
0.668177 
0.72165 
0.754073 
0.701328 
0.784704 
0.833357 
0.667594 
0.755477 
0.758381 
0.719174 
0.804576 
0.831835 
0.664917 
0.746379 
0.756224 
0.712928 
0.799257 
0.835301 
0.681836 
0.72215 
0.765409 
0.708163 
0.790103 
0.726857 
0.870964 
0.826389 
0.805589 
0.855115 
0.787914 
0.826119 
0.870964 
0.726857 
0.854876 
0.805589 
0.78697 
0.956263 
0.916764 
0.826389 
0.944411 
0.8815 
0.903103 
0.826389 
0.701872 
0.726857 
0.768933 
0.720578 
0.787914 
0.830442 
0.702763 
0.726392 
0.77154 
0.720729 
0.789399 
0.835301 
0.850482 
0.72134 
0.84984 
0.791037 
0.789241 
0.72215 
0.851359 
0.835301 
0.791943 
0.850917 
0.790103 
0.833357 
0.851363 
0.72134 
0.848932 
0.791571 
0.787551 
0.72165 
0.865423 
0.826119 
0.800024 
0.852502 
0.784704 
0.831835 
0.650763 
0.664917 
0.750351 
0.662412 
0.756224 
0.833357 
0.650616 
0.667594 
0.751098 
0.663641 
0.758381 
0.835301 
0.651921 
0.681836 
0.75306 
0.671363 
0.765409 
0.826119 
0.6532 
0.668177 
0.747992 
0.664975 
0.754073 
0.999731 
0.978982 
0.956263 
0.993803 
0.972699 
0.987285 
0.826389 
0.870964 
0.956263 
0.855115 
0.919812 
0.903103 
0.851363 
0.734969 
0.72134 
0.799702 
0.733246 
0.791571 
0.46875 
0.681836 
0.5 
0.584638 
0.596791 
0.492188 
0.46875 
0.664917 
0.5 
0.574992 
0.587396 
0.492188 
0.46875 
0.668177 
0.5 
0.576817 
0.589209 
0.492188 
0.46875 
0.667594 
0.5 
0.576541 
0.588855 
0.492188 
0.841291 
0.734969 
0.851363 
0.793288 
0.799702 
0.852563 
0.831835 
0.919057 
0.966758 
0.884863 
0.950262 
0.912854 
0.966758 
0.883589 
0.831835 
0.932181 
0.86415 
0.912854 
0.966758 
0.983077 
0.999731 
0.979649 
0.99606 
0.993012 
0 
0.350735 
0.21875 
0.184799 
0.289847 
0.117188 
0 
0.350735 
0.21875 
0.184799 
0.289847 
0.117188 
0.21875 
0.350735 
0 
0.289847 
0.184799 
0.117187 
0 
0.350735 
0.21875 
0.184799 
0.289847 
0.117188 
0.21875 
0.350735 
0 
0.289847 
0.184799 
0.117187 
0 
0.350735 
0.21875 
0.184799 
0.289847 
0.117188 
0.21875 
0.350735 
0 
0.289847 
0.184799 
0.117188 
0.21875 
0.350735 
0 
0.289847 
0.184799 
0.117188 
0.944044 
0.983077 
0.919057 
0.968228 
0.957548 
0.940715 
0.850482 
0.737123 
0.72134 
0.800003 
0.734012 
0.791037 
0.934135 
0.983693 
0.964201 
0.963608 
0.980363 
0.956572 
0.854796 
0.737123 
0.850482 
0.801206 
0.800003 
0.857095 
0.934135 
0.850482 
0.835301 
0.896794 
0.84984 
0.892911 
0.919057 
0.983077 
0.966758 
0.957548 
0.979649 
0.950262 
0.865423 
0.918261 
0.826119 
0.897804 
0.876487 
0.852502 
0.956263 
0.978982 
0.916764 
0.972699 
0.953106 
0.944411 
0.964201 
0.918261 
0.865423 
0.947142 
0.897804 
0.922914 
0.851359 
0.724654 
0.830442 
0.794997 
0.782217 
0.846503 
0.72165 
0.74383 
0.865423 
0.737627 
0.812224 
0.800024 
0.865423 
0.74383 
0.854796 
0.812224 
0.804316 
0.86553 
0.72215 
0.724654 
0.851359 
0.728252 
0.794997 
0.791943 
0.5 
0.650763 
0.46875 
0.580825 
0.565676 
0.492187 
0.5 
0.651921 
0.46875 
0.581463 
0.566316 
0.492187 
0.5 
0.650616 
0.46875 
0.58076 
0.565583 
0.492187 
0.5 
0.6532 
0.46875 
0.581964 
0.56719 
0.492187 
0.943569 
0.983693 
0.934135 
0.968943 
0.963608 
0.9485 
0.375 
0.432481 
0.21875 
0.408802 
0.329877 
0.304687 
0.375 
0.432687 
0.21875 
0.408915 
0.329988 
0.304687 
0.21875 
0.434624 
0.375 
0.331042 
0.409844 
0.304688 
0.21875 
0.433532 
0.375 
0.330449 
0.409265 
0.304688 
0.21875 
0.433548 
0.375 
0.330457 
0.409273 
0.304688 
0.21875 
0.434283 
0.375 
0.330858 
0.409589 
0.304688 
0.375 
0.432481 
0.21875 
0.408802 
0.329877 
0.304687 
0.375 
0.432698 
0.21875 
0.408922 
0.329994 
0.304687 
0.681836 