# vtk DataFile Version 3.0
TPZGeoMesh VTK Visualization
ASCII

DATASET UNSTRUCTURED_GRID
POINTS 24 float
1 0 0 
0.5 0.5 0 
0 0 0 
0.75 0.25 0 
0.25 0.25 0 
0.5 0 0 
0 0 0 
0.5 0.5 0 
0 1 0 
0.25 0.25 0 
0.25 0.75 0 
0 0.5 0 
1 1 0 
0.5 0.5 0 
1 0 0 
0.75 0.75 0 
0.75 0.25 0 
1 0.5 0 
0 1 0 
0.5 0.5 0 
1 1 0 
0.25 0.75 0 
0.75 0.75 0 
0.5 1 0 
CELLS 4 28
6 0 1 2 3 4 5
6 6 7 8 9 10 11
6 12 13 14 15 16 17
6 18 19 20 21 22 23

CELL_TYPES 4
22
22
22
22

CELL_DATA 4
FIELD FieldData 2
material 1 4 int
1
1
1
1
elindex 1 4 int
5
6
7
8
POINT_DATA 24
SCALARS Sol float
LOOKUP_TABLE default
1.9697e-13 
0.0666667 
6.06061e-14 
0.0333333 
0.0333333 
1.28788e-13 
6.06061e-14 
0.0666667 
1.9697e-13 
0.0333333 
0.0333333 
1.28788e-13 
1.51515e-13 
0.0666667 
1.9697e-13 
0.0333333 
0.0333333 
1.74242e-13 
1.9697e-13 
0.0666667 
1.51515e-13 
0.0333333 
0.0333333 
1.74242e-13 
SCALARS Force float
LOOKUP_TABLE default
0 
1 
0 
0.75 
0.75 
0.5 
0 
1 
0 
0.75 
0.75 
0.5 
0 
1 
0 
0.75 
0.75 
0.5 
0 
1 
0 
0.75 
0.75 
0.5 
SCALARS SolExact float
LOOKUP_TABLE default
0 
0.0625 
0 
0.0351562 
0.0351562 
0 
0 
0.0625 
0 
0.0351562 
0.0351562 
0 
0 
0.0625 
0 
0.0351562 
0.0351562 
0 
0 
0.0625 
0 
0.0351562 
0.0351562 
0 
VECTORS DSol float
1.36377e-13 0.133333 0 
1.36377e-13 0.133333 0 
1.36377e-13 0.133333 0 
1.36377e-13 0.133333 0 
1.36377e-13 0.133333 0 
1.36377e-13 0.133333 0 
0.133333 1.36349e-13 0 
0.133333 1.36349e-13 0 
0.133333 1.36349e-13 0 
0.133333 1.36349e-13 0 
0.133333 1.36349e-13 0 
0.133333 1.36349e-13 0 
-0.133333 -4.54498e-14 0 
-0.133333 -4.54498e-14 0 
-0.133333 -4.54498e-14 0 
-0.133333 -4.54498e-14 0 
-0.133333 -4.54498e-14 0 
-0.133333 -4.54498e-14 0 
-4.54636e-14 -0.133333 0 
-4.54636e-14 -0.133333 0 
-4.54636e-14 -0.133333 0 
-4.54636e-14 -0.133333 0 
-4.54636e-14 -0.133333 0 
-4.54636e-14 -0.133333 0 
VECTORS Flux float
-1.36377e-13 -0.133333 0 
-1.36377e-13 -0.133333 0 
-1.36377e-13 -0.133333 0 
-1.36377e-13 -0.133333 0 
-1.36377e-13 -0.133333 0 
-1.36377e-13 -0.133333 0 
-0.133333 -1.36349e-13 0 
-0.133333 -1.36349e-13 0 
-0.133333 -1.36349e-13 0 
-0.133333 -1.36349e-13 0 
-0.133333 -1.36349e-13 0 
-0.133333 -1.36349e-13 0 
0.133333 4.54498e-14 0 
0.133333 4.54498e-14 0 
0.133333 4.54498e-14 0 
0.133333 4.54498e-14 0 
0.133333 4.54498e-14 0 
0.133333 4.54498e-14 0 
4.54636e-14 0.133333 0 
4.54636e-14 0.133333 0 
4.54636e-14 0.133333 0 
4.54636e-14 0.133333 0 
4.54636e-14 0.133333 0 
4.54636e-14 0.133333 0 
VECTORS DSolExact float
-0 0 0 
0 0 0 
0 0 0 
-0.09375 0.09375 0 
0.09375 0.09375 0 
0 0.25 0 
0 0 0 
0 0 0 
0 -0 0 
0.09375 0.09375 0 
0.09375 -0.09375 0 
0.25 0 0 
-0 -0 0 
0 0 0 
-0 0 0 
-0.09375 -0.09375 0 
-0.09375 0.09375 0 
-0.25 0 0 
0 -0 0 
0 0 0 
-0 -0 0 
0.09375 -0.09375 0 
-0.09375 -0.09375 0 
0 -0.25 0 
